Program Version,EnergyPlus, Version 26.1.0-6f2e40d102, YMD=2026.04.14 19:03
1,5,Environment Title[],Latitude[deg],Longitude[deg],Time Zone[],Elevation[m]
2,8,Day of Simulation[],Month[],Day of Month[],DST Indicator[1=yes 0=no],Hour[],StartMinute[],EndMinute[],DayType
3,5,Cumulative Day of Simulation[],Month[],Day of Month[],DST Indicator[1=yes 0=no],DayType  ! When Daily Meters Requested
4,2,Cumulative Days of Simulation[],Month[]  ! When Monthly Meters Requested
5,1,Cumulative Days of Simulation[] ! When Run Period Meters Requested
6,1,Calendar Year of Simulation[] ! When Annual Meters Requested
213,1,Electricity:Facility [J] !Hourly
6085,1,ElectricityNet:Facility [J] !Hourly
End of Data Dictionary
1,RUNPERIOD 1,  28.11, 112.79,   8.00, 120.00
2,1, 1, 1, 0, 1, 0.00,60.00,Holiday
213,288184154.6337091
6085,288184154.6337091
2,1, 1, 1, 0, 2, 0.00,60.00,Holiday
213,276132988.0710934
6085,276132988.07109326
2,1, 1, 1, 0, 3, 0.00,60.00,Holiday
213,274949559.0836849
6085,274949559.0836848
2,1, 1, 1, 0, 4, 0.00,60.00,Holiday
213,274457641.0232396
6085,274457641.0232395
2,1, 1, 1, 0, 5, 0.00,60.00,Holiday
213,277482749.15356034
6085,277482749.1535602
2,1, 1, 1, 0, 6, 0.00,60.00,Holiday
213,292831223.2811489
6085,292831223.2811487
2,1, 1, 1, 0, 7, 0.00,60.00,Holiday
213,313602419.87068194
6085,313602419.8706818
2,1, 1, 1, 0, 8, 0.00,60.00,Holiday
213,310396439.9079566
6085,310396439.9079565
2,1, 1, 1, 0, 9, 0.00,60.00,Holiday
213,302036855.83774555
6085,302036855.8377453
2,1, 1, 1, 0,10, 0.00,60.00,Holiday
213,296353813.30462927
6085,296353813.3046291
2,1, 1, 1, 0,11, 0.00,60.00,Holiday
213,284593687.361594
6085,284593687.36159384
2,1, 1, 1, 0,12, 0.00,60.00,Holiday
213,297332463.3406655
6085,297332463.3406653
2,1, 1, 1, 0,13, 0.00,60.00,Holiday
213,297211003.69399726
6085,297211003.6939971
2,1, 1, 1, 0,14, 0.00,60.00,Holiday
213,286764597.89280844
6085,286764597.8928082
2,1, 1, 1, 0,15, 0.00,60.00,Holiday
213,295175132.7333779
6085,295175132.7333776
2,1, 1, 1, 0,16, 0.00,60.00,Holiday
213,307983508.2835958
6085,307983508.2835956
2,1, 1, 1, 0,17, 0.00,60.00,Holiday
213,328827721.1045128
6085,328827721.104513
2,1, 1, 1, 0,18, 0.00,60.00,Holiday
213,383155974.478396
6085,383155974.47839653
2,1, 1, 1, 0,19, 0.00,60.00,Holiday
213,398750823.1360687
6085,398750823.1360691
2,1, 1, 1, 0,20, 0.00,60.00,Holiday
213,385718098.71872085
6085,385718098.7187212
2,1, 1, 1, 0,21, 0.00,60.00,Holiday
213,380468383.27122074
6085,380468383.2712212
2,1, 1, 1, 0,22, 0.00,60.00,Holiday
213,362024396.48459315
6085,362024396.4845933
2,1, 1, 1, 0,23, 0.00,60.00,Holiday
213,330162191.83425105
6085,330162191.83425087
2,1, 1, 1, 0,24, 0.00,60.00,Holiday
213,310910132.585317
6085,310910132.5853168
2,2, 1, 2, 0, 1, 0.00,60.00,Monday
213,293547253.1238944
6085,293547253.12389433
2,2, 1, 2, 0, 2, 0.00,60.00,Monday
213,283942341.9602902
6085,283942341.96029
2,2, 1, 2, 0, 3, 0.00,60.00,Monday
213,281037591.9402919
6085,281037591.94029176
2,2, 1, 2, 0, 4, 0.00,60.00,Monday
213,280403309.9858549
6085,280403309.98585486
2,2, 1, 2, 0, 5, 0.00,60.00,Monday
213,283916931.66090333
6085,283916931.6609032
2,2, 1, 2, 0, 6, 0.00,60.00,Monday
213,299591649.6454707
6085,299591649.6454705
2,2, 1, 2, 0, 7, 0.00,60.00,Monday
213,325097820.99460423
6085,325097820.994604
2,2, 1, 2, 0, 8, 0.00,60.00,Monday
213,323961157.25785315
6085,323961157.257853
2,2, 1, 2, 0, 9, 0.00,60.00,Monday
213,321349516.2864309
6085,321349516.28643066
2,2, 1, 2, 0,10, 0.00,60.00,Monday
213,315672136.38840795
6085,315672136.3884077
2,2, 1, 2, 0,11, 0.00,60.00,Monday
213,306592279.2870002
6085,306592279.28700006
2,2, 1, 2, 0,12, 0.00,60.00,Monday
213,308863244.9248663
6085,308863244.9248661
2,2, 1, 2, 0,13, 0.00,60.00,Monday
213,306604495.42980754
6085,306604495.42980736
2,2, 1, 2, 0,14, 0.00,60.00,Monday
213,305120101.49386936
6085,305120101.4938692
2,2, 1, 2, 0,15, 0.00,60.00,Monday
213,300288828.4344466
6085,300288828.43444633
2,2, 1, 2, 0,16, 0.00,60.00,Monday
213,305868576.6765211
6085,305868576.6765209
2,2, 1, 2, 0,17, 0.00,60.00,Monday
213,340095840.2532959
6085,340095840.253296
2,2, 1, 2, 0,18, 0.00,60.00,Monday
213,388019431.79144645
6085,388019431.79144686
2,2, 1, 2, 0,19, 0.00,60.00,Monday
213,406707104.94876254
6085,406707104.9487628
2,2, 1, 2, 0,20, 0.00,60.00,Monday
213,397567299.5350301
6085,397567299.5350306
2,2, 1, 2, 0,21, 0.00,60.00,Monday
213,390244780.78043664
6085,390244780.780437
2,2, 1, 2, 0,22, 0.00,60.00,Monday
213,369740515.57801753
6085,369740515.57801765
2,2, 1, 2, 0,23, 0.00,60.00,Monday
213,338256570.07738364
6085,338256570.07738346
2,2, 1, 2, 0,24, 0.00,60.00,Monday
213,319016486.0757292
6085,319016486.075729
2,3, 1, 3, 0, 1, 0.00,60.00,Tuesday
213,301837640.02052385
6085,301837640.02052385
2,3, 1, 3, 0, 2, 0.00,60.00,Tuesday
213,293246958.6687873
6085,293246958.66878724
2,3, 1, 3, 0, 3, 0.00,60.00,Tuesday
213,291074743.3682902
6085,291074743.3682901
2,3, 1, 3, 0, 4, 0.00,60.00,Tuesday
213,290324960.0498862
6085,290324960.0498861
2,3, 1, 3, 0, 5, 0.00,60.00,Tuesday
213,293798498.98774076
6085,293798498.98774064
2,3, 1, 3, 0, 6, 0.00,60.00,Tuesday
213,315336072.92030823
6085,315336072.92030805
2,3, 1, 3, 0, 7, 0.00,60.00,Tuesday
213,337994558.8703104
6085,337994558.8703102
2,3, 1, 3, 0, 8, 0.00,60.00,Tuesday
213,332714211.5095059
6085,332714211.50950575
2,3, 1, 3, 0, 9, 0.00,60.00,Tuesday
213,329984890.8260575
6085,329984890.82605714
2,3, 1, 3, 0,10, 0.00,60.00,Tuesday
213,321787418.56656146
6085,321787418.5665613
2,3, 1, 3, 0,11, 0.00,60.00,Tuesday
213,313805284.25061256
6085,313805284.2506123
2,3, 1, 3, 0,12, 0.00,60.00,Tuesday
213,316223184.1089351
6085,316223184.1089349
2,3, 1, 3, 0,13, 0.00,60.00,Tuesday
213,312022422.94158083
6085,312022422.94158065
2,3, 1, 3, 0,14, 0.00,60.00,Tuesday
213,310325895.20114547
6085,310325895.2011453
2,3, 1, 3, 0,15, 0.00,60.00,Tuesday
213,309521036.1473781
6085,309521036.1473779
2,3, 1, 3, 0,16, 0.00,60.00,Tuesday
213,317849064.16418064
6085,317849064.16418034
2,3, 1, 3, 0,17, 0.00,60.00,Tuesday
213,352331496.14271873
6085,352331496.1427189
2,3, 1, 3, 0,18, 0.00,60.00,Tuesday
213,400278774.50898874
6085,400278774.5089892
2,3, 1, 3, 0,19, 0.00,60.00,Tuesday
213,415277781.1717386
6085,415277781.17173916
2,3, 1, 3, 0,20, 0.00,60.00,Tuesday
213,403089060.9195133
6085,403089060.9195137
2,3, 1, 3, 0,21, 0.00,60.00,Tuesday
213,395717383.75508726
6085,395717383.75508773
2,3, 1, 3, 0,22, 0.00,60.00,Tuesday
213,374107386.21301186
6085,374107386.21301204
2,3, 1, 3, 0,23, 0.00,60.00,Tuesday
213,340748939.29729944
6085,340748939.29729927
2,3, 1, 3, 0,24, 0.00,60.00,Tuesday
213,314575045.66791725
6085,314575045.66791713
2,4, 1, 4, 0, 1, 0.00,60.00,Wednesday
213,297375899.96720135
6085,297375899.9672013
2,4, 1, 4, 0, 2, 0.00,60.00,Wednesday
213,293750778.7816149
6085,293750778.7816148
2,4, 1, 4, 0, 3, 0.00,60.00,Wednesday
213,298243333.72428256
6085,298243333.72428244
2,4, 1, 4, 0, 4, 0.00,60.00,Wednesday
213,297491440.8485966
6085,297491440.84859645
2,4, 1, 4, 0, 5, 0.00,60.00,Wednesday
213,296445526.8399748
6085,296445526.8399747
2,4, 1, 4, 0, 6, 0.00,60.00,Wednesday
213,314605285.1497303
6085,314605285.1497302
2,4, 1, 4, 0, 7, 0.00,60.00,Wednesday
213,335716774.11206794
6085,335716774.1120677
2,4, 1, 4, 0, 8, 0.00,60.00,Wednesday
213,333573771.15571296
6085,333573771.1557128
2,4, 1, 4, 0, 9, 0.00,60.00,Wednesday
213,333080897.6678394
6085,333080897.6678392
2,4, 1, 4, 0,10, 0.00,60.00,Wednesday
213,323506401.43819094
6085,323506401.4381907
2,4, 1, 4, 0,11, 0.00,60.00,Wednesday
213,306937415.56401384
6085,306937415.56401354
2,4, 1, 4, 0,12, 0.00,60.00,Wednesday
213,295542283.0062184
6085,295542283.00621814
2,4, 1, 4, 0,13, 0.00,60.00,Wednesday
213,284201554.9613621
6085,284201554.96136194
2,4, 1, 4, 0,14, 0.00,60.00,Wednesday
213,280856666.58421004
6085,280856666.58420986
2,4, 1, 4, 0,15, 0.00,60.00,Wednesday
213,286372731.1159974
6085,286372731.11599714
2,4, 1, 4, 0,16, 0.00,60.00,Wednesday
213,294764855.5640101
6085,294764855.5640099
2,4, 1, 4, 0,17, 0.00,60.00,Wednesday
213,324908606.52284944
6085,324908606.5228496
2,4, 1, 4, 0,18, 0.00,60.00,Wednesday
213,380299285.8486886
6085,380299285.84868896
2,4, 1, 4, 0,19, 0.00,60.00,Wednesday
213,396411600.4217808
6085,396411600.42178124
2,4, 1, 4, 0,20, 0.00,60.00,Wednesday
213,379388089.82751805
6085,379388089.82751846
2,4, 1, 4, 0,21, 0.00,60.00,Wednesday
213,380423602.8474986
6085,380423602.847499
2,4, 1, 4, 0,22, 0.00,60.00,Wednesday
213,361888317.69571894
6085,361888317.6957192
2,4, 1, 4, 0,23, 0.00,60.00,Wednesday
213,324696435.19585216
6085,324696435.1958519
2,4, 1, 4, 0,24, 0.00,60.00,Wednesday
213,305273444.3360389
6085,305273444.3360386
2,5, 1, 5, 0, 1, 0.00,60.00,Thursday
213,288567839.19329965
6085,288567839.19329965
2,5, 1, 5, 0, 2, 0.00,60.00,Thursday
213,279098131.77799404
6085,279098131.777994
2,5, 1, 5, 0, 3, 0.00,60.00,Thursday
213,280485147.703565
6085,280485147.70356494
2,5, 1, 5, 0, 4, 0.00,60.00,Thursday
213,278566992.6483656
6085,278566992.6483655
2,5, 1, 5, 0, 5, 0.00,60.00,Thursday
213,276929386.622106
6085,276929386.62210596
2,5, 1, 5, 0, 6, 0.00,60.00,Thursday
213,299658563.9066875
6085,299658563.9066874
2,5, 1, 5, 0, 7, 0.00,60.00,Thursday
213,327567848.7543775
6085,327567848.75437725
2,5, 1, 5, 0, 8, 0.00,60.00,Thursday
213,324618899.2971691
6085,324618899.2971689
2,5, 1, 5, 0, 9, 0.00,60.00,Thursday
213,312156659.22712094
6085,312156659.22712076
2,5, 1, 5, 0,10, 0.00,60.00,Thursday
213,285979810.16074055
6085,285979810.1607404
2,5, 1, 5, 0,11, 0.00,60.00,Thursday
213,261028063.508746
6085,261028063.50874576
2,5, 1, 5, 0,12, 0.00,60.00,Thursday
213,252418065.82116655
6085,252418065.82116637
2,5, 1, 5, 0,13, 0.00,60.00,Thursday
213,242450430.9067196
6085,242450430.90671942
2,5, 1, 5, 0,14, 0.00,60.00,Thursday
213,232486458.6872916
6085,232486458.68729144
2,5, 1, 5, 0,15, 0.00,60.00,Thursday
213,218535742.9174254
6085,218535742.91742516
2,5, 1, 5, 0,16, 0.00,60.00,Thursday
213,219941481.92575806
6085,219941481.92575788
2,5, 1, 5, 0,17, 0.00,60.00,Thursday
213,258541918.41990185
6085,258541918.41990206
2,5, 1, 5, 0,18, 0.00,60.00,Thursday
213,327587193.6586011
6085,327587193.65860146
2,5, 1, 5, 0,19, 0.00,60.00,Thursday
213,357072814.0027579
6085,357072814.0027584
2,5, 1, 5, 0,20, 0.00,60.00,Thursday
213,349574130.0028024
6085,349574130.0028028
2,5, 1, 5, 0,21, 0.00,60.00,Thursday
213,347803809.26616096
6085,347803809.26616144
2,5, 1, 5, 0,22, 0.00,60.00,Thursday
213,330529281.07161915
6085,330529281.0716193
2,5, 1, 5, 0,23, 0.00,60.00,Thursday
213,298652170.51468694
6085,298652170.51468676
2,5, 1, 5, 0,24, 0.00,60.00,Thursday
213,272466676.3061844
6085,272466676.3061842
2,6, 1, 6, 0, 1, 0.00,60.00,Friday
213,255390111.09917417
6085,255390111.09917408
2,6, 1, 6, 0, 2, 0.00,60.00,Friday
213,253485424.6228056
6085,253485424.62280548
2,6, 1, 6, 0, 3, 0.00,60.00,Friday
213,253424350.079966
6085,253424350.0799659
2,6, 1, 6, 0, 4, 0.00,60.00,Friday
213,253872343.81678066
6085,253872343.8167805
2,6, 1, 6, 0, 5, 0.00,60.00,Friday
213,257238850.6662538
6085,257238850.66625372
2,6, 1, 6, 0, 6, 0.00,60.00,Friday
213,272851913.68043846
6085,272851913.68043834
2,6, 1, 6, 0, 7, 0.00,60.00,Friday
213,296305628.62779915
6085,296305628.6277989
2,6, 1, 6, 0, 8, 0.00,60.00,Friday
213,295476048.6255825
6085,295476048.62558234
2,6, 1, 6, 0, 9, 0.00,60.00,Friday
213,279700244.2230386
6085,279700244.2230384
2,6, 1, 6, 0,10, 0.00,60.00,Friday
213,245081706.86006656
6085,245081706.86006635
2,6, 1, 6, 0,11, 0.00,60.00,Friday
213,210915840.7346825
6085,210915840.73468232
2,6, 1, 6, 0,12, 0.00,60.00,Friday
213,206175959.17643887
6085,206175959.17643863
2,6, 1, 6, 0,13, 0.00,60.00,Friday
213,201230940.7079612
6085,201230940.70796105
2,6, 1, 6, 0,14, 0.00,60.00,Friday
213,196377775.58763748
6085,196377775.58763728
2,6, 1, 6, 0,15, 0.00,60.00,Friday
213,189433614.983591
6085,189433614.98359084
2,6, 1, 6, 0,16, 0.00,60.00,Friday
213,194472329.2490276
6085,194472329.24902743
2,6, 1, 6, 0,17, 0.00,60.00,Friday
213,229810983.97483903
6085,229810983.9748389
2,6, 1, 6, 0,18, 0.00,60.00,Friday
213,285413659.08788866
6085,285413659.087889
2,6, 1, 6, 0,19, 0.00,60.00,Friday
213,318102074.16198987
6085,318102074.1619903
2,6, 1, 6, 0,20, 0.00,60.00,Friday
213,309550491.6354261
6085,309550491.6354266
2,6, 1, 6, 0,21, 0.00,60.00,Friday
213,307817614.805048
6085,307817614.80504847
2,6, 1, 6, 0,22, 0.00,60.00,Friday
213,296838331.18241477
6085,296838331.18241495
2,6, 1, 6, 0,23, 0.00,60.00,Friday
213,274618545.4595636
6085,274618545.45956343
2,6, 1, 6, 0,24, 0.00,60.00,Friday
213,259593552.67555222
6085,259593552.6755521
2,7, 1, 7, 0, 1, 0.00,60.00,Saturday
213,254854045.64625144
6085,254854045.6462514
2,7, 1, 7, 0, 2, 0.00,60.00,Saturday
213,260950731.06548613
6085,260950731.065486
2,7, 1, 7, 0, 3, 0.00,60.00,Saturday
213,263722323.77264026
6085,263722323.77264014
2,7, 1, 7, 0, 4, 0.00,60.00,Saturday
213,265072958.49610028
6085,265072958.49610022
2,7, 1, 7, 0, 5, 0.00,60.00,Saturday
213,270655946.951877
6085,270655946.9518769
2,7, 1, 7, 0, 6, 0.00,60.00,Saturday
213,290649934.9987446
6085,290649934.99874437
2,7, 1, 7, 0, 7, 0.00,60.00,Saturday
213,315795467.51459265
6085,315795467.5145925
2,7, 1, 7, 0, 8, 0.00,60.00,Saturday
213,313509942.77503383
6085,313509942.7750336
2,7, 1, 7, 0, 9, 0.00,60.00,Saturday
213,287041526.6338812
6085,287041526.633881
2,7, 1, 7, 0,10, 0.00,60.00,Saturday
213,257453546.01004294
6085,257453546.01004273
2,7, 1, 7, 0,11, 0.00,60.00,Saturday
213,225382773.7807199
6085,225382773.78071973
2,7, 1, 7, 0,12, 0.00,60.00,Saturday
213,210970543.20929784
6085,210970543.20929766
2,7, 1, 7, 0,13, 0.00,60.00,Saturday
213,205252561.58576176
6085,205252561.5857616
2,7, 1, 7, 0,14, 0.00,60.00,Saturday
213,198647710.24806282
6085,198647710.24806267
2,7, 1, 7, 0,15, 0.00,60.00,Saturday
213,193123242.21072417
6085,193123242.210724
2,7, 1, 7, 0,16, 0.00,60.00,Saturday
213,198543203.12660712
6085,198543203.1266069
2,7, 1, 7, 0,17, 0.00,60.00,Saturday
213,236932364.0441866
6085,236932364.04418644
2,7, 1, 7, 0,18, 0.00,60.00,Saturday
213,296926260.558523
6085,296926260.5585234
2,7, 1, 7, 0,19, 0.00,60.00,Saturday
213,326202469.95261955
6085,326202469.95262
2,7, 1, 7, 0,20, 0.00,60.00,Saturday
213,320502497.3755395
6085,320502497.3755399
2,7, 1, 7, 0,21, 0.00,60.00,Saturday
213,321903718.8250774
6085,321903718.8250778
2,7, 1, 7, 0,22, 0.00,60.00,Saturday
213,310733649.134049
6085,310733649.1340492
2,7, 1, 7, 0,23, 0.00,60.00,Saturday
213,285432021.6764577
6085,285432021.6764574
2,7, 1, 7, 0,24, 0.00,60.00,Saturday
213,265656230.6906459
6085,265656230.6906457
2,8, 1, 8, 0, 1, 0.00,60.00,Sunday
213,253702366.71500075
6085,253702366.71500066
2,8, 1, 8, 0, 2, 0.00,60.00,Sunday
213,255743098.1695661
6085,255743098.16956604
2,8, 1, 8, 0, 3, 0.00,60.00,Sunday
213,259943189.18679237
6085,259943189.18679228
2,8, 1, 8, 0, 4, 0.00,60.00,Sunday
213,262873559.87951705
6085,262873559.87951696
2,8, 1, 8, 0, 5, 0.00,60.00,Sunday
213,268476772.0786726
6085,268476772.0786725
2,8, 1, 8, 0, 6, 0.00,60.00,Sunday
213,286036339.61358845
6085,286036339.6135883
2,8, 1, 8, 0, 7, 0.00,60.00,Sunday
213,312415072.5548025
6085,312415072.55480224
2,8, 1, 8, 0, 8, 0.00,60.00,Sunday
213,314320354.6130727
6085,314320354.6130725
2,8, 1, 8, 0, 9, 0.00,60.00,Sunday
213,283879626.660703
6085,283879626.6607028
2,8, 1, 8, 0,10, 0.00,60.00,Sunday
213,244551916.15639853
6085,244551916.15639836
2,8, 1, 8, 0,11, 0.00,60.00,Sunday
213,213440165.06535855
6085,213440165.0653583
2,8, 1, 8, 0,12, 0.00,60.00,Sunday
213,204546784.36471385
6085,204546784.3647136
2,8, 1, 8, 0,13, 0.00,60.00,Sunday
213,201430635.94167364
6085,201430635.9416735
2,8, 1, 8, 0,14, 0.00,60.00,Sunday
213,194741140.00899124
6085,194741140.00899106
2,8, 1, 8, 0,15, 0.00,60.00,Sunday
213,189972989.94842267
6085,189972989.9484225
2,8, 1, 8, 0,16, 0.00,60.00,Sunday
213,193982734.23984075
6085,193982734.2398406
2,8, 1, 8, 0,17, 0.00,60.00,Sunday
213,228986008.47955087
6085,228986008.4795507
2,8, 1, 8, 0,18, 0.00,60.00,Sunday
213,285044481.4142451
6085,285044481.4142456
2,8, 1, 8, 0,19, 0.00,60.00,Sunday
213,313490663.8564132
6085,313490663.8564136
2,8, 1, 8, 0,20, 0.00,60.00,Sunday
213,305142852.4806281
6085,305142852.48062855
2,8, 1, 8, 0,21, 0.00,60.00,Sunday
213,305217165.9006386
6085,305217165.90063894
2,8, 1, 8, 0,22, 0.00,60.00,Sunday
213,290736303.8276874
6085,290736303.82768756
2,8, 1, 8, 0,23, 0.00,60.00,Sunday
213,263718170.48736683
6085,263718170.48736668
2,8, 1, 8, 0,24, 0.00,60.00,Sunday
213,244584592.93488768
6085,244584592.93488753
2,9, 1, 9, 0, 1, 0.00,60.00,Monday
213,236543107.1299942
6085,236543107.12999424
2,9, 1, 9, 0, 2, 0.00,60.00,Monday
213,245719957.08517733
6085,245719957.08517718
2,9, 1, 9, 0, 3, 0.00,60.00,Monday
213,250360687.33527228
6085,250360687.33527216
2,9, 1, 9, 0, 4, 0.00,60.00,Monday
213,250919873.22970757
6085,250919873.22970745
2,9, 1, 9, 0, 5, 0.00,60.00,Monday
213,262605967.1795086
6085,262605967.17950845
2,9, 1, 9, 0, 6, 0.00,60.00,Monday
213,284492095.09456354
6085,284492095.09456336
2,9, 1, 9, 0, 7, 0.00,60.00,Monday
213,314327384.21541643
6085,314327384.21541625
2,9, 1, 9, 0, 8, 0.00,60.00,Monday
213,316913288.29112494
6085,316913288.2911247
2,9, 1, 9, 0, 9, 0.00,60.00,Monday
213,292699464.43635356
6085,292699464.4363533
2,9, 1, 9, 0,10, 0.00,60.00,Monday
213,249214725.18906355
6085,249214725.1890633
2,9, 1, 9, 0,11, 0.00,60.00,Monday
213,215946035.34199858
6085,215946035.34199834
2,9, 1, 9, 0,12, 0.00,60.00,Monday
213,202247580.62749308
6085,202247580.62749287
2,9, 1, 9, 0,13, 0.00,60.00,Monday
213,193903526.179147
6085,193903526.17914686
2,9, 1, 9, 0,14, 0.00,60.00,Monday
213,201004913.1841349
6085,201004913.18413478
2,9, 1, 9, 0,15, 0.00,60.00,Monday
213,208602298.74790847
6085,208602298.7479083
2,9, 1, 9, 0,16, 0.00,60.00,Monday
213,216418948.39814547
6085,216418948.39814526
2,9, 1, 9, 0,17, 0.00,60.00,Monday
213,238476594.6841535
6085,238476594.68415353
2,9, 1, 9, 0,18, 0.00,60.00,Monday
213,273527712.38689244
6085,273527712.386893
2,9, 1, 9, 0,19, 0.00,60.00,Monday
213,306392209.09936583
6085,306392209.0993663
2,9, 1, 9, 0,20, 0.00,60.00,Monday
213,300224178.61225945
6085,300224178.61225986
2,9, 1, 9, 0,21, 0.00,60.00,Monday
213,301082281.86725986
6085,301082281.86726034
2,9, 1, 9, 0,22, 0.00,60.00,Monday
213,285494076.6877263
6085,285494076.6877265
2,9, 1, 9, 0,23, 0.00,60.00,Monday
213,253364176.08892086
6085,253364176.08892065
2,9, 1, 9, 0,24, 0.00,60.00,Monday
213,240641855.5698293
6085,240641855.5698291
2,10, 1,10, 0, 1, 0.00,60.00,Tuesday
213,237297032.37819034
6085,237297032.37819025
2,10, 1,10, 0, 2, 0.00,60.00,Tuesday
213,239620542.30125248
6085,239620542.3012523
2,10, 1,10, 0, 3, 0.00,60.00,Tuesday
213,242718204.98776922
6085,242718204.98776913
2,10, 1,10, 0, 4, 0.00,60.00,Tuesday
213,246539977.80887473
6085,246539977.80887458
2,10, 1,10, 0, 5, 0.00,60.00,Tuesday
213,254258587.07587308
6085,254258587.07587296
2,10, 1,10, 0, 6, 0.00,60.00,Tuesday
213,276120930.15761304
6085,276120930.1576128
2,10, 1,10, 0, 7, 0.00,60.00,Tuesday
213,306082870.9875014
6085,306082870.98750114
2,10, 1,10, 0, 8, 0.00,60.00,Tuesday
213,309546562.36593205
6085,309546562.3659319
2,10, 1,10, 0, 9, 0.00,60.00,Tuesday
213,290250582.35840964
6085,290250582.35840946
2,10, 1,10, 0,10, 0.00,60.00,Tuesday
213,250274612.112366
6085,250274612.11236578
2,10, 1,10, 0,11, 0.00,60.00,Tuesday
213,211711567.92457828
6085,211711567.92457813
2,10, 1,10, 0,12, 0.00,60.00,Tuesday
213,198492982.1860133
6085,198492982.18601307
2,10, 1,10, 0,13, 0.00,60.00,Tuesday
213,195038643.25793877
6085,195038643.2579386
2,10, 1,10, 0,14, 0.00,60.00,Tuesday
213,204838633.54222724
6085,204838633.5422271
2,10, 1,10, 0,15, 0.00,60.00,Tuesday
213,205803019.3991006
6085,205803019.39910048
2,10, 1,10, 0,16, 0.00,60.00,Tuesday
213,208863044.22480398
6085,208863044.2248038
2,10, 1,10, 0,17, 0.00,60.00,Tuesday
213,233214481.4276545
6085,233214481.42765436
2,10, 1,10, 0,18, 0.00,60.00,Tuesday
213,269735602.4209591
6085,269735602.4209596
2,10, 1,10, 0,19, 0.00,60.00,Tuesday
213,292027580.58613026
6085,292027580.5861308
2,10, 1,10, 0,20, 0.00,60.00,Tuesday
213,284018164.1689417
6085,284018164.1689421
2,10, 1,10, 0,21, 0.00,60.00,Tuesday
213,285696603.78491884
6085,285696603.7849193
2,10, 1,10, 0,22, 0.00,60.00,Tuesday
213,271020493.06457675
6085,271020493.0645769
2,10, 1,10, 0,23, 0.00,60.00,Tuesday
213,238784547.72035968
6085,238784547.7203595
2,10, 1,10, 0,24, 0.00,60.00,Tuesday
213,210957895.88109297
6085,210957895.88109285
2,11, 1,11, 0, 1, 0.00,60.00,Wednesday
213,191951486.74553668
6085,191951486.74553663
2,11, 1,11, 0, 2, 0.00,60.00,Wednesday
213,188520176.98957226
6085,188520176.98957208
2,11, 1,11, 0, 3, 0.00,60.00,Wednesday
213,194263724.54062495
6085,194263724.5406248
2,11, 1,11, 0, 4, 0.00,60.00,Wednesday
213,196631775.92741957
6085,196631775.92741948
2,11, 1,11, 0, 5, 0.00,60.00,Wednesday
213,197237965.81896713
6085,197237965.818967
2,11, 1,11, 0, 6, 0.00,60.00,Wednesday
213,221799595.70092368
6085,221799595.70092353
2,11, 1,11, 0, 7, 0.00,60.00,Wednesday
213,246697151.51292646
6085,246697151.51292622
2,11, 1,11, 0, 8, 0.00,60.00,Wednesday
213,243576900.73692122
6085,243576900.73692107
2,11, 1,11, 0, 9, 0.00,60.00,Wednesday
213,247372546.85781702
6085,247372546.85781682
2,11, 1,11, 0,10, 0.00,60.00,Wednesday
213,238442192.7632741
6085,238442192.7632739
2,11, 1,11, 0,11, 0.00,60.00,Wednesday
213,221134496.07698396
6085,221134496.07698384
2,11, 1,11, 0,12, 0.00,60.00,Wednesday
213,231877890.6322279
6085,231877890.63222775
2,11, 1,11, 0,13, 0.00,60.00,Wednesday
213,228765767.93049645
6085,228765767.9304963
2,11, 1,11, 0,14, 0.00,60.00,Wednesday
213,219859014.96820664
6085,219859014.96820647
2,11, 1,11, 0,15, 0.00,60.00,Wednesday
213,232653212.49776012
6085,232653212.49776
2,11, 1,11, 0,16, 0.00,60.00,Wednesday
213,249836316.85042572
6085,249836316.8504255
2,11, 1,11, 0,17, 0.00,60.00,Wednesday
213,285446747.8953644
6085,285446747.89536464
2,11, 1,11, 0,18, 0.00,60.00,Wednesday
213,339409638.49666107
6085,339409638.4966615
2,11, 1,11, 0,19, 0.00,60.00,Wednesday
213,360333944.9685296
6085,360333944.96853006
2,11, 1,11, 0,20, 0.00,60.00,Wednesday
213,347987462.4130881
6085,347987462.41308856
2,11, 1,11, 0,21, 0.00,60.00,Wednesday
213,342666881.13751155
6085,342666881.13751197
2,11, 1,11, 0,22, 0.00,60.00,Wednesday
213,325356170.1547117
6085,325356170.15471184
2,11, 1,11, 0,23, 0.00,60.00,Wednesday
213,296420614.4878309
6085,296420614.48783064
2,11, 1,11, 0,24, 0.00,60.00,Wednesday
213,277288929.8510345
6085,277288929.85103434
2,12, 1,12, 0, 1, 0.00,60.00,Thursday
213,263815794.05668825
6085,263815794.05668825
2,12, 1,12, 0, 2, 0.00,60.00,Thursday
213,262090238.21226552
6085,262090238.21226537
2,12, 1,12, 0, 3, 0.00,60.00,Thursday
213,261729444.820839
6085,261729444.82083887
2,12, 1,12, 0, 4, 0.00,60.00,Thursday
213,261163967.7399733
6085,261163967.7399732
2,12, 1,12, 0, 5, 0.00,60.00,Thursday
213,264533555.7885052
6085,264533555.78850508
2,12, 1,12, 0, 6, 0.00,60.00,Thursday
213,287575792.2687538
6085,287575792.26875365
2,12, 1,12, 0, 7, 0.00,60.00,Thursday
213,312741203.03538597
6085,312741203.0353857
2,12, 1,12, 0, 8, 0.00,60.00,Thursday
213,309494753.39747864
6085,309494753.39747846
2,12, 1,12, 0, 9, 0.00,60.00,Thursday
213,312223113.7852701
6085,312223113.7852698
2,12, 1,12, 0,10, 0.00,60.00,Thursday
213,298608643.3686727
6085,298608643.3686725
2,12, 1,12, 0,11, 0.00,60.00,Thursday
213,271566888.52896154
6085,271566888.5289614
2,12, 1,12, 0,12, 0.00,60.00,Thursday
213,275060157.40171134
6085,275060157.4017111
2,12, 1,12, 0,13, 0.00,60.00,Thursday
213,268124414.21789727
6085,268124414.21789706
2,12, 1,12, 0,14, 0.00,60.00,Thursday
213,255898225.75701246
6085,255898225.7570123
2,12, 1,12, 0,15, 0.00,60.00,Thursday
213,265575415.29705837
6085,265575415.29705814
2,12, 1,12, 0,16, 0.00,60.00,Thursday
213,277918280.462444
6085,277918280.4624438
2,12, 1,12, 0,17, 0.00,60.00,Thursday
213,313255430.31881577
6085,313255430.3188158
2,12, 1,12, 0,18, 0.00,60.00,Thursday
213,369167226.02711576
6085,369167226.0271163
2,12, 1,12, 0,19, 0.00,60.00,Thursday
213,383029779.3439879
6085,383029779.34398836
2,12, 1,12, 0,20, 0.00,60.00,Thursday
213,366100883.6235691
6085,366100883.62356955
2,12, 1,12, 0,21, 0.00,60.00,Thursday
213,366266192.92831814
6085,366266192.92831856
2,12, 1,12, 0,22, 0.00,60.00,Thursday
213,347540105.314085
6085,347540105.3140852
2,12, 1,12, 0,23, 0.00,60.00,Thursday
213,311236340.8021568
6085,311236340.80215657
2,12, 1,12, 0,24, 0.00,60.00,Thursday
213,292254584.49986553
6085,292254584.4998653
2,13, 1,13, 0, 1, 0.00,60.00,Friday
213,280184640.6844951
6085,280184640.68449503
2,13, 1,13, 0, 2, 0.00,60.00,Friday
213,275443751.05719125
6085,275443751.0571912
2,13, 1,13, 0, 3, 0.00,60.00,Friday
213,280885013.1266075
6085,280885013.1266073
2,13, 1,13, 0, 4, 0.00,60.00,Friday
213,280288552.0072453
6085,280288552.00724524
2,13, 1,13, 0, 5, 0.00,60.00,Friday
213,277726662.43748385
6085,277726662.4374838
2,13, 1,13, 0, 6, 0.00,60.00,Friday
213,299480139.05062824
6085,299480139.05062807
2,13, 1,13, 0, 7, 0.00,60.00,Friday
213,322260232.9998728
6085,322260232.9998726
2,13, 1,13, 0, 8, 0.00,60.00,Friday
213,318368493.489542
6085,318368493.48954177
2,13, 1,13, 0, 9, 0.00,60.00,Friday
213,316793906.1831495
6085,316793906.1831492
2,13, 1,13, 0,10, 0.00,60.00,Friday
213,302514472.2381565
6085,302514472.2381563
2,13, 1,13, 0,11, 0.00,60.00,Friday
213,285419632.2844853
6085,285419632.28448504
2,13, 1,13, 0,12, 0.00,60.00,Friday
213,282844763.66113347
6085,282844763.6611333
2,13, 1,13, 0,13, 0.00,60.00,Friday
213,276587343.1729638
6085,276587343.1729636
2,13, 1,13, 0,14, 0.00,60.00,Friday
213,275391810.5283848
6085,275391810.52838475
2,13, 1,13, 0,15, 0.00,60.00,Friday
213,275940515.5110698
6085,275940515.51106954
2,13, 1,13, 0,16, 0.00,60.00,Friday
213,285507862.1272612
6085,285507862.127261
2,13, 1,13, 0,17, 0.00,60.00,Friday
213,320345718.00088716
6085,320345718.00088733
2,13, 1,13, 0,18, 0.00,60.00,Friday
213,371107106.30325514
6085,371107106.3032555
2,13, 1,13, 0,19, 0.00,60.00,Friday
213,387931720.0969088
6085,387931720.09690917
2,13, 1,13, 0,20, 0.00,60.00,Friday
213,375160477.135535
6085,375160477.13553554
2,13, 1,13, 0,21, 0.00,60.00,Friday
213,376312985.9692417
6085,376312985.9692422
2,13, 1,13, 0,22, 0.00,60.00,Friday
213,358118993.3855429
6085,358118993.38554305
2,13, 1,13, 0,23, 0.00,60.00,Friday
213,321901222.39760184
6085,321901222.39760166
2,13, 1,13, 0,24, 0.00,60.00,Friday
213,296497824.0741997
6085,296497824.0741995
2,14, 1,14, 0, 1, 0.00,60.00,Saturday
213,283816072.84722054
6085,283816072.8472204
2,14, 1,14, 0, 2, 0.00,60.00,Saturday
213,282403955.37943876
6085,282403955.37943864
2,14, 1,14, 0, 3, 0.00,60.00,Saturday
213,286405183.0844742
6085,286405183.0844741
2,14, 1,14, 0, 4, 0.00,60.00,Saturday
213,285571475.8947112
6085,285571475.894711
2,14, 1,14, 0, 5, 0.00,60.00,Saturday
213,284159167.38119304
6085,284159167.381193
2,14, 1,14, 0, 6, 0.00,60.00,Saturday
213,304886558.9749363
6085,304886558.9749361
2,14, 1,14, 0, 7, 0.00,60.00,Saturday
213,326685203.6181543
6085,326685203.61815417
2,14, 1,14, 0, 8, 0.00,60.00,Saturday
213,320455933.99883294
6085,320455933.99883276
2,14, 1,14, 0, 9, 0.00,60.00,Saturday
213,312639709.8988805
6085,312639709.89888024
2,14, 1,14, 0,10, 0.00,60.00,Saturday
213,299060709.44482774
6085,299060709.44482744
2,14, 1,14, 0,11, 0.00,60.00,Saturday
213,276803179.27596956
6085,276803179.2759694
2,14, 1,14, 0,12, 0.00,60.00,Saturday
213,287714839.4364602
6085,287714839.43646
2,14, 1,14, 0,13, 0.00,60.00,Saturday
213,284070185.2833296
6085,284070185.2833295
2,14, 1,14, 0,14, 0.00,60.00,Saturday
213,271392906.2880019
6085,271392906.28800166
2,14, 1,14, 0,15, 0.00,60.00,Saturday
213,282319499.7073227
6085,282319499.7073224
2,14, 1,14, 0,16, 0.00,60.00,Saturday
213,295413576.2383538
6085,295413576.2383536
2,14, 1,14, 0,17, 0.00,60.00,Saturday
213,319923755.617477
6085,319923755.6174772
2,14, 1,14, 0,18, 0.00,60.00,Saturday
213,378540572.2715493
6085,378540572.27154976
2,14, 1,14, 0,19, 0.00,60.00,Saturday
213,401378423.2047779
6085,401378423.2047783
2,14, 1,14, 0,20, 0.00,60.00,Saturday
213,384645304.46236837
6085,384645304.46236885
2,14, 1,14, 0,21, 0.00,60.00,Saturday
213,382600041.68435144
6085,382600041.68435186
2,14, 1,14, 0,22, 0.00,60.00,Saturday
213,360774183.17409337
6085,360774183.1740935
2,14, 1,14, 0,23, 0.00,60.00,Saturday
213,323839556.4505146
6085,323839556.4505144
2,14, 1,14, 0,24, 0.00,60.00,Saturday
213,299485056.6977812
6085,299485056.697781
2,15, 1,15, 0, 1, 0.00,60.00,Sunday
213,282808435.7616083
6085,282808435.7616082
2,15, 1,15, 0, 2, 0.00,60.00,Sunday
213,278719816.1042946
6085,278719816.1042944
2,15, 1,15, 0, 3, 0.00,60.00,Sunday
213,283052610.22689563
6085,283052610.2268955
2,15, 1,15, 0, 4, 0.00,60.00,Sunday
213,282311952.6725325
6085,282311952.6725324
2,15, 1,15, 0, 5, 0.00,60.00,Sunday
213,280948659.21812713
6085,280948659.218127
2,15, 1,15, 0, 6, 0.00,60.00,Sunday
213,294607695.194114
6085,294607695.19411385
2,15, 1,15, 0, 7, 0.00,60.00,Sunday
213,318823599.7551355
6085,318823599.7551352
2,15, 1,15, 0, 8, 0.00,60.00,Sunday
213,321246616.0744425
6085,321246616.0744424
2,15, 1,15, 0, 9, 0.00,60.00,Sunday
213,320616040.0418308
6085,320616040.04183066
2,15, 1,15, 0,10, 0.00,60.00,Sunday
213,314041335.5849878
6085,314041335.5849876
2,15, 1,15, 0,11, 0.00,60.00,Sunday
213,295565138.4131086
6085,295565138.4131083
2,15, 1,15, 0,12, 0.00,60.00,Sunday
213,297126569.59549254
6085,297126569.59549236
2,15, 1,15, 0,13, 0.00,60.00,Sunday
213,295049243.0521108
6085,295049243.05211055
2,15, 1,15, 0,14, 0.00,60.00,Sunday
213,291764222.17977756
6085,291764222.1797773
2,15, 1,15, 0,15, 0.00,60.00,Sunday
213,291612160.8170789
6085,291612160.81707865
2,15, 1,15, 0,16, 0.00,60.00,Sunday
213,304920221.48597896
6085,304920221.48597884
2,15, 1,15, 0,17, 0.00,60.00,Sunday
213,335648148.87933356
6085,335648148.8793337
2,15, 1,15, 0,18, 0.00,60.00,Sunday
213,380490130.5999192
6085,380490130.59991956
2,15, 1,15, 0,19, 0.00,60.00,Sunday
213,404079413.4954406