Program Version,EnergyPlus, Version 26.1.0-6f2e40d102, YMD=2026.04.14 19:01
1,5,Environment Title[],Latitude[deg],Longitude[deg],Time Zone[],Elevation[m]
2,8,Day of Simulation[],Month[],Day of Month[],DST Indicator[1=yes 0=no],Hour[],StartMinute[],EndMinute[],DayType
3,5,Cumulative Day of Simulation[],Month[],Day of Month[],DST Indicator[1=yes 0=no],DayType  ! When Daily Meters Requested
4,2,Cumulative Days of Simulation[],Month[]  ! When Monthly Meters Requested
5,1,Cumulative Days of Simulation[] ! When Run Period Meters Requested
6,1,Calendar Year of Simulation[] ! When Annual Meters Requested
213,1,Electricity:Facility [J] !Hourly
5925,1,ElectricityNet:Facility [J] !Hourly
End of Data Dictionary
1,RUNPERIOD 1,  28.11, 112.79,   8.00, 120.00
2,1, 1, 1, 0, 1, 0.00,60.00,Sunday
213,99618948.51094642
5925,99618948.51094641
2,1, 1, 1, 0, 2, 0.00,60.00,Sunday
213,102487001.3098667
5925,102487001.3098667
2,1, 1, 1, 0, 3, 0.00,60.00,Sunday
213,107426424.78938513
5925,107426424.78938514
2,1, 1, 1, 0, 4, 0.00,60.00,Sunday
213,100775514.3448498
5925,100775514.34484978
2,1, 1, 1, 0, 5, 0.00,60.00,Sunday
213,110733656.93231402
5925,110733656.93231401
2,1, 1, 1, 0, 6, 0.00,60.00,Sunday
213,137414913.06736612
5925,137414913.06736612
2,1, 1, 1, 0, 7, 0.00,60.00,Sunday
213,202624410.91744965
5925,202624410.91744962
2,1, 1, 1, 0, 8, 0.00,60.00,Sunday
213,206374201.5179984
5925,206374201.51799858
2,1, 1, 1, 0, 9, 0.00,60.00,Sunday
213,186378229.16554844
5925,186378229.1655484
2,1, 1, 1, 0,10, 0.00,60.00,Sunday
213,166757768.63176078
5925,166757768.63176078
2,1, 1, 1, 0,11, 0.00,60.00,Sunday
213,167491151.2883309
5925,167491151.2883309
2,1, 1, 1, 0,12, 0.00,60.00,Sunday
213,150424033.22821933
5925,150424033.22821936
2,1, 1, 1, 0,13, 0.00,60.00,Sunday
213,139377660.57573637
5925,139377660.57573637
2,1, 1, 1, 0,14, 0.00,60.00,Sunday
213,143758395.11519882
5925,143758395.11519882
2,1, 1, 1, 0,15, 0.00,60.00,Sunday
213,124415355.21375695
5925,124415355.21375695
2,1, 1, 1, 0,16, 0.00,60.00,Sunday
213,150575762.10334146
5925,150575762.10334146
2,1, 1, 1, 0,17, 0.00,60.00,Sunday
213,169298846.57742327
5925,169298846.57742348
2,1, 1, 1, 0,18, 0.00,60.00,Sunday
213,209962065.44116753
5925,209962065.4411679
2,1, 1, 1, 0,19, 0.00,60.00,Sunday
213,247933722.0185902
5925,247933722.0185905
2,1, 1, 1, 0,20, 0.00,60.00,Sunday
213,231503108.31574458
5925,231503108.31574494
2,1, 1, 1, 0,21, 0.00,60.00,Sunday
213,234609857.67452893
5925,234609857.67452925
2,1, 1, 1, 0,22, 0.00,60.00,Sunday
213,205442171.7522083
5925,205442171.75220853
2,1, 1, 1, 0,23, 0.00,60.00,Sunday
213,176350833.64694372
5925,176350833.64694372
2,1, 1, 1, 0,24, 0.00,60.00,Sunday
213,139285821.30014196
5925,139285821.30014196
2,2, 1, 2, 0, 1, 0.00,60.00,Holiday
213,107494515.90238138
5925,107494515.90238136
2,2, 1, 2, 0, 2, 0.00,60.00,Holiday
213,109810359.04212536
5925,109810359.04212533
2,2, 1, 2, 0, 3, 0.00,60.00,Holiday
213,101400310.97016174
5925,101400310.97016174
2,2, 1, 2, 0, 4, 0.00,60.00,Holiday
213,95704474.24241696
5925,95704474.24241695
2,2, 1, 2, 0, 5, 0.00,60.00,Holiday
213,111773161.36606774
5925,111773161.36606772
2,2, 1, 2, 0, 6, 0.00,60.00,Holiday
213,138477900.62044606
5925,138477900.62044603
2,2, 1, 2, 0, 7, 0.00,60.00,Holiday
213,204442502.8871293
5925,204442502.88712928
2,2, 1, 2, 0, 8, 0.00,60.00,Holiday
213,208501008.04633668
5925,208501008.0463369
2,2, 1, 2, 0, 9, 0.00,60.00,Holiday
213,188047691.86616617
5925,188047691.86616623
2,2, 1, 2, 0,10, 0.00,60.00,Holiday
213,168350585.48101008
5925,168350585.4810101
2,2, 1, 2, 0,11, 0.00,60.00,Holiday
213,169425390.14670375
5925,169425390.14670375
2,2, 1, 2, 0,12, 0.00,60.00,Holiday
213,155859014.0035746
5925,155859014.00357467
2,2, 1, 2, 0,13, 0.00,60.00,Holiday
213,147570382.4271176
5925,147570382.4271176
2,2, 1, 2, 0,14, 0.00,60.00,Holiday
213,132138082.3680562
5925,132138082.3680562
2,2, 1, 2, 0,15, 0.00,60.00,Holiday
213,136958688.80058616
5925,136958688.80058613
2,2, 1, 2, 0,16, 0.00,60.00,Holiday
213,135603293.3444876
5925,135603293.34448764
2,2, 1, 2, 0,17, 0.00,60.00,Holiday
213,176817019.08948588
5925,176817019.08948606
2,2, 1, 2, 0,18, 0.00,60.00,Holiday
213,207089863.70660275
5925,207089863.70660308
2,2, 1, 2, 0,19, 0.00,60.00,Holiday
213,249014162.52323264
5925,249014162.52323297
2,2, 1, 2, 0,20, 0.00,60.00,Holiday
213,239212875.10556427
5925,239212875.10556456
2,2, 1, 2, 0,21, 0.00,60.00,Holiday
213,225677646.77753136
5925,225677646.77753168
2,2, 1, 2, 0,22, 0.00,60.00,Holiday
213,203163071.2341631
5925,203163071.23416334
2,2, 1, 2, 0,23, 0.00,60.00,Holiday
213,177390233.22906113
5925,177390233.22906116
2,2, 1, 2, 0,24, 0.00,60.00,Holiday
213,140388196.29225147
5925,140388196.29225147
2,3, 1, 3, 0, 1, 0.00,60.00,Tuesday
213,121727491.39959851
5925,121727491.39959851
2,3, 1, 3, 0, 2, 0.00,60.00,Tuesday
213,104946510.10492906
5925,104946510.10492906
2,3, 1, 3, 0, 3, 0.00,60.00,Tuesday
213,96662943.52975617
5925,96662943.52975619
2,3, 1, 3, 0, 4, 0.00,60.00,Tuesday
213,109139337.24195386
5925,109139337.24195386
2,3, 1, 3, 0, 5, 0.00,60.00,Tuesday
213,106991728.23431928
5925,106991728.23431928
2,3, 1, 3, 0, 6, 0.00,60.00,Tuesday
213,141256318.48902005
5925,141256318.48902002
2,3, 1, 3, 0, 7, 0.00,60.00,Tuesday
213,206655692.34949163
5925,206655692.34949163
2,3, 1, 3, 0, 8, 0.00,60.00,Tuesday
213,202307628.96344677
5925,202307628.96344694
2,3, 1, 3, 0, 9, 0.00,60.00,Tuesday
213,201092457.89523482
5925,201092457.89523497
2,3, 1, 3, 0,10, 0.00,60.00,Tuesday
213,179432128.80369693
5925,179432128.80369693
2,3, 1, 3, 0,11, 0.00,60.00,Tuesday
213,168691031.91089123
5925,168691031.9108912
2,3, 1, 3, 0,12, 0.00,60.00,Tuesday
213,153822264.35313827
5925,153822264.35313833
2,3, 1, 3, 0,13, 0.00,60.00,Tuesday
213,152134191.14665207
5925,152134191.1466521
2,3, 1, 3, 0,14, 0.00,60.00,Tuesday
213,137191936.8343766
5925,137191936.8343766
2,3, 1, 3, 0,15, 0.00,60.00,Tuesday
213,149906868.78889802
5925,149906868.78889802
2,3, 1, 3, 0,16, 0.00,60.00,Tuesday
213,155017577.8123491
5925,155017577.81234908
2,3, 1, 3, 0,17, 0.00,60.00,Tuesday
213,162224179.95865354
5925,162224179.95865375
2,3, 1, 3, 0,18, 0.00,60.00,Tuesday
213,222969860.81166816
5925,222969860.81166846
2,3, 1, 3, 0,19, 0.00,60.00,Tuesday
213,236691916.18909752
5925,236691916.1890978
2,3, 1, 3, 0,20, 0.00,60.00,Tuesday
213,247560377.84477448
5925,247560377.84477478
2,3, 1, 3, 0,21, 0.00,60.00,Tuesday
213,223181523.52631044
5925,223181523.52631077
2,3, 1, 3, 0,22, 0.00,60.00,Tuesday
213,207074633.38237548
5925,207074633.38237575
2,3, 1, 3, 0,23, 0.00,60.00,Tuesday
213,177820956.16712117
5925,177820956.16712123
2,3, 1, 3, 0,24, 0.00,60.00,Tuesday
213,139245375.83760464
5925,139245375.83760464
2,4, 1, 4, 0, 1, 0.00,60.00,Wednesday
213,113677871.89052904
5925,113677871.89052904
2,4, 1, 4, 0, 2, 0.00,60.00,Wednesday
213,105084614.76195443
5925,105084614.76195444
2,4, 1, 4, 0, 3, 0.00,60.00,Wednesday
213,111389495.36321339
5925,111389495.36321339
2,4, 1, 4, 0, 4, 0.00,60.00,Wednesday
213,104572444.54697958
5925,104572444.54697956
2,4, 1, 4, 0, 5, 0.00,60.00,Wednesday
213,100403866.99334174
5925,100403866.99334173
2,4, 1, 4, 0, 6, 0.00,60.00,Wednesday
213,140599225.81439766
5925,140599225.81439766
2,4, 1, 4, 0, 7, 0.00,60.00,Wednesday
213,205877458.02158976
5925,205877458.02158973
2,4, 1, 4, 0, 8, 0.00,60.00,Wednesday
213,210153715.6491213
5925,210153715.6491215
2,4, 1, 4, 0, 9, 0.00,60.00,Wednesday
213,193949941.68039787
5925,193949941.68039805
2,4, 1, 4, 0,10, 0.00,60.00,Wednesday
213,187297837.15192538
5925,187297837.15192547
2,4, 1, 4, 0,11, 0.00,60.00,Wednesday
213,160196694.8579604
5925,160196694.85796046
2,4, 1, 4, 0,12, 0.00,60.00,Wednesday
213,158148249.85943943
5925,158148249.85943943
2,4, 1, 4, 0,13, 0.00,60.00,Wednesday
213,148096025.65095645
5925,148096025.65095645
2,4, 1, 4, 0,14, 0.00,60.00,Wednesday
213,146361521.49147475
5925,146361521.49147475
2,4, 1, 4, 0,15, 0.00,60.00,Wednesday
213,127238697.7860509
5925,127238697.7860509
2,4, 1, 4, 0,16, 0.00,60.00,Wednesday
213,152777061.0972898
5925,152777061.0972898
2,4, 1, 4, 0,17, 0.00,60.00,Wednesday
213,179412627.95812035
5925,179412627.95812052
2,4, 1, 4, 0,18, 0.00,60.00,Wednesday
213,207512295.0926951
5925,207512295.09269542
2,4, 1, 4, 0,19, 0.00,60.00,Wednesday
213,248360893.11464456
5925,248360893.11464483
2,4, 1, 4, 0,20, 0.00,60.00,Wednesday
213,223337564.28992456
5925,223337564.28992492
2,4, 1, 4, 0,21, 0.00,60.00,Wednesday
213,241224524.9316576
5925,241224524.93165797
2,4, 1, 4, 0,22, 0.00,60.00,Wednesday
213,200236513.8357055
5925,200236513.83570573
2,4, 1, 4, 0,23, 0.00,60.00,Wednesday
213,162411402.2538787
5925,162411402.25387874
2,4, 1, 4, 0,24, 0.00,60.00,Wednesday
213,151863576.67285842
5925,151863576.67285842
2,5, 1, 5, 0, 1, 0.00,60.00,Thursday
213,106956437.38979469
5925,106956437.38979466
2,5, 1, 5, 0, 2, 0.00,60.00,Thursday
213,116304500.0345872
5925,116304500.0345872
2,5, 1, 5, 0, 3, 0.00,60.00,Thursday
213,95836469.3089452
5925,95836469.3089452
2,5, 1, 5, 0, 4, 0.00,60.00,Thursday
213,94964761.18882726
5925,94964761.18882726
2,5, 1, 5, 0, 5, 0.00,60.00,Thursday
213,117871132.22917604
5925,117871132.22917606
2,5, 1, 5, 0, 6, 0.00,60.00,Thursday
213,139116337.11083916
5925,139116337.1108392
2,5, 1, 5, 0, 7, 0.00,60.00,Thursday
213,205403954.73948157
5925,205403954.73948157
2,5, 1, 5, 0, 8, 0.00,60.00,Thursday
213,201509646.47379702
5925,201509646.4737972
2,5, 1, 5, 0, 9, 0.00,60.00,Thursday
213,199083642.23809606
5925,199083642.23809615
2,5, 1, 5, 0,10, 0.00,60.00,Thursday
213,161604086.4542337
5925,161604086.4542337
2,5, 1, 5, 0,11, 0.00,60.00,Thursday
213,175810966.61190304
5925,175810966.61190304
2,5, 1, 5, 0,12, 0.00,60.00,Thursday
213,146032825.63387412
5925,146032825.63387415
2,5, 1, 5, 0,13, 0.00,60.00,Thursday
213,137675682.33691195
5925,137675682.33691195
2,5, 1, 5, 0,14, 0.00,60.00,Thursday
213,133889831.6275016
5925,133889831.62750162
2,5, 1, 5, 0,15, 0.00,60.00,Thursday
213,139162534.14257035
5925,139162534.14257038
2,5, 1, 5, 0,16, 0.00,60.00,Thursday
213,130406305.61153795
5925,130406305.61153798
2,5, 1, 5, 0,17, 0.00,60.00,Thursday
213,165204104.35382164
5925,165204104.3538218
2,5, 1, 5, 0,18, 0.00,60.00,Thursday
213,201607773.2041449
5925,201607773.20414525
2,5, 1, 5, 0,19, 0.00,60.00,Thursday
213,244039495.10350662
5925,244039495.10350698
2,5, 1, 5, 0,20, 0.00,60.00,Thursday
213,241694258.6969797
5925,241694258.69698006
2,5, 1, 5, 0,21, 0.00,60.00,Thursday
213,217965282.94521424
5925,217965282.94521454
2,5, 1, 5, 0,22, 0.00,60.00,Thursday
213,202341517.88966775
5925,202341517.88966793
2,5, 1, 5, 0,23, 0.00,60.00,Thursday
213,173147196.22455236
5925,173147196.2245524
2,5, 1, 5, 0,24, 0.00,60.00,Thursday
213,134399810.5529755
5925,134399810.55297548
2,6, 1, 6, 0, 1, 0.00,60.00,Friday
213,109540279.48113066
5925,109540279.48113066
2,6, 1, 6, 0, 2, 0.00,60.00,Friday
213,99646861.48946464
5925,99646861.48946464
2,6, 1, 6, 0, 3, 0.00,60.00,Friday
213,99380998.1231507
5925,99380998.1231507
2,6, 1, 6, 0, 4, 0.00,60.00,Friday
213,105010102.4171867
5925,105010102.4171867
2,6, 1, 6, 0, 5, 0.00,60.00,Friday
213,101763738.14321826
5925,101763738.14321828
2,6, 1, 6, 0, 6, 0.00,60.00,Friday
213,129483968.46196738
5925,129483968.46196738
2,6, 1, 6, 0, 7, 0.00,60.00,Friday
213,206965744.73669255
5925,206965744.73669252
2,6, 1, 6, 0, 8, 0.00,60.00,Friday
213,199864412.8455458
5925,199864412.84554592
2,6, 1, 6, 0, 9, 0.00,60.00,Friday
213,187359137.3960908
5925,187359137.3960909
2,6, 1, 6, 0,10, 0.00,60.00,Friday
213,177749175.1537808
5925,177749175.1537808
2,6, 1, 6, 0,11, 0.00,60.00,Friday
213,148286751.54839268
5925,148286751.54839268
2,6, 1, 6, 0,12, 0.00,60.00,Friday
213,145545258.48402405
5925,145545258.48402408
2,6, 1, 6, 0,13, 0.00,60.00,Friday
213,135228742.62580803
5925,135228742.62580803
2,6, 1, 6, 0,14, 0.00,60.00,Friday
213,119334463.20985992
5925,119334463.20985988
2,6, 1, 6, 0,15, 0.00,60.00,Friday
213,131078078.97975516
5925,131078078.97975515
2,6, 1, 6, 0,16, 0.00,60.00,Friday
213,136077810.68929923
5925,136077810.6892992
2,6, 1, 6, 0,17, 0.00,60.00,Friday
213,144298926.83547205
5925,144298926.83547214
2,6, 1, 6, 0,18, 0.00,60.00,Friday
213,208906995.7100424
5925,208906995.71004266
2,6, 1, 6, 0,19, 0.00,60.00,Friday
213,226263151.8376788
5925,226263151.83767915
2,6, 1, 6, 0,20, 0.00,60.00,Friday
213,237883079.92598513
5925,237883079.9259854
2,6, 1, 6, 0,21, 0.00,60.00,Friday
213,214957989.76540807
5925,214957989.76540843
2,6, 1, 6, 0,22, 0.00,60.00,Friday
213,192806443.42468783
5925,192806443.42468804
2,6, 1, 6, 0,23, 0.00,60.00,Friday
213,179623704.27559835
5925,179623704.27559835
2,6, 1, 6, 0,24, 0.00,60.00,Friday
213,134920856.83140635
5925,134920856.83140638
2,7, 1, 7, 0, 1, 0.00,60.00,Saturday
213,110985308.7944668
5925,110985308.79446676
2,7, 1, 7, 0, 2, 0.00,60.00,Saturday
213,103743208.44607693
5925,103743208.44607693
2,7, 1, 7, 0, 3, 0.00,60.00,Saturday
213,109105669.5956909
5925,109105669.59569089
2,7, 1, 7, 0, 4, 0.00,60.00,Saturday
213,102573117.41974054
5925,102573117.41974054
2,7, 1, 7, 0, 5, 0.00,60.00,Saturday
213,99699803.1534918
5925,99699803.1534918
2,7, 1, 7, 0, 6, 0.00,60.00,Saturday
213,150937196.1260052
5925,150937196.12600517
2,7, 1, 7, 0, 7, 0.00,60.00,Saturday
213,194570011.33505005
5925,194570011.33505005
2,7, 1, 7, 0, 8, 0.00,60.00,Saturday
213,215047814.98422265
5925,215047814.9842228
2,7, 1, 7, 0, 9, 0.00,60.00,Saturday
213,181779306.8831578
5925,181779306.88315773
2,7, 1, 7, 0,10, 0.00,60.00,Saturday
213,178274433.29043072
5925,178274433.29043072
2,7, 1, 7, 0,11, 0.00,60.00,Saturday
213,151645503.65480185
5925,151645503.65480185
2,7, 1, 7, 0,12, 0.00,60.00,Saturday
213,149590298.4967566
5925,149590298.4967566
2,7, 1, 7, 0,13, 0.00,60.00,Saturday
213,129083104.64277455
5925,129083104.64277454
2,7, 1, 7, 0,14, 0.00,60.00,Saturday
213,132547870.34325853
5925,132547870.34325854
2,7, 1, 7, 0,15, 0.00,60.00,Saturday
213,110011886.35225487
5925,110011886.35225487
2,7, 1, 7, 0,16, 0.00,60.00,Saturday
213,135665187.95291868
5925,135665187.95291868
2,7, 1, 7, 0,17, 0.00,60.00,Saturday
213,165320519.70641083
5925,165320519.70641088
2,7, 1, 7, 0,18, 0.00,60.00,Saturday
213,198792015.37136024
5925,198792015.3713606
2,7, 1, 7, 0,19, 0.00,60.00,Saturday
213,241938817.62131232
5925,241938817.62131268
2,7, 1, 7, 0,20, 0.00,60.00,Saturday
213,219831417.18893343
5925,219831417.1889337
2,7, 1, 7, 0,21, 0.00,60.00,Saturday
213,236720353.56393147
5925,236720353.5639318
2,7, 1, 7, 0,22, 0.00,60.00,Saturday
213,194216106.14154506
5925,194216106.1415453
2,7, 1, 7, 0,23, 0.00,60.00,Saturday
213,173226984.83886018
5925,173226984.83886018
2,7, 1, 7, 0,24, 0.00,60.00,Saturday
213,135322888.71561486
5925,135322888.71561489
2,8, 1, 8, 0, 1, 0.00,60.00,Sunday
213,104247851.87563929
5925,104247851.8756393
2,8, 1, 8, 0, 2, 0.00,60.00,Sunday
213,115577364.54103412
5925,115577364.54103412
2,8, 1, 8, 0, 3, 0.00,60.00,Sunday
213,95092913.47010835
5925,95092913.47010835
2,8, 1, 8, 0, 4, 0.00,60.00,Sunday
213,94941476.8029039
5925,94941476.8029039
2,8, 1, 8, 0, 5, 0.00,60.00,Sunday
213,119131059.70721552
5925,119131059.70721552
2,8, 1, 8, 0, 6, 0.00,60.00,Sunday
213,139060667.63309798
5925,139060667.63309798
2,8, 1, 8, 0, 7, 0.00,60.00,Sunday
213,205086840.79334202
5925,205086840.79334205
2,8, 1, 8, 0, 8, 0.00,60.00,Sunday
213,206238255.83698797
5925,206238255.83698815
2,8, 1, 8, 0, 9, 0.00,60.00,Sunday
213,190033970.354037
5925,190033970.354037
2,8, 1, 8, 0,10, 0.00,60.00,Sunday
213,172541225.12157834
5925,172541225.1215783
2,8, 1, 8, 0,11, 0.00,60.00,Sunday
213,150247478.9138863
5925,150247478.9138863
2,8, 1, 8, 0,12, 0.00,60.00,Sunday
213,141067239.61307055
5925,141067239.61307055
2,8, 1, 8, 0,13, 0.00,60.00,Sunday
213,132389955.26429805
5925,132389955.26429805
2,8, 1, 8, 0,14, 0.00,60.00,Sunday
213,115388555.6302675
5925,115388555.6302675
2,8, 1, 8, 0,15, 0.00,60.00,Sunday
213,120024140.5146035
5925,120024140.5146035
2,8, 1, 8, 0,16, 0.00,60.00,Sunday
213,122148090.63041005
5925,122148090.63041006
2,8, 1, 8, 0,17, 0.00,60.00,Sunday
213,150985248.04728442
5925,150985248.04728445
2,8, 1, 8, 0,18, 0.00,60.00,Sunday
213,216032799.55906487
5925,216032799.5590652
2,8, 1, 8, 0,19, 0.00,60.00,Sunday
213,217598232.9422871
5925,217598232.94228745
2,8, 1, 8, 0,20, 0.00,60.00,Sunday
213,237138446.46398348
5925,237138446.46398383
2,8, 1, 8, 0,21, 0.00,60.00,Sunday
213,214318122.49926156
5925,214318122.4992619
2,8, 1, 8, 0,22, 0.00,60.00,Sunday
213,199704504.35842448
5925,199704504.35842463
2,8, 1, 8, 0,23, 0.00,60.00,Sunday
213,171452184.36790246
5925,171452184.36790243
2,8, 1, 8, 0,24, 0.00,60.00,Sunday
213,133745846.31904325
5925,133745846.31904323
2,9, 1, 9, 0, 1, 0.00,60.00,Monday
213,116104959.97568229
5925,116104959.97568229
2,9, 1, 9, 0, 2, 0.00,60.00,Monday
213,95199909.35819766
5925,95199909.35819766
2,9, 1, 9, 0, 3, 0.00,60.00,Monday
213,113810394.10721499
5925,113810394.10721499
2,9, 1, 9, 0, 4, 0.00,60.00,Monday
213,94825172.84366143
5925,94825172.8436614
2,9, 1, 9, 0, 5, 0.00,60.00,Monday
213,105976490.78683932
5925,105976490.78683929
2,9, 1, 9, 0, 6, 0.00,60.00,Monday
213,139630533.90031314
5925,139630533.9003131
2,9, 1, 9, 0, 7, 0.00,60.00,Monday
213,206157537.84791288
5925,206157537.84791288
2,9, 1, 9, 0, 8, 0.00,60.00,Monday
213,203378232.82903346
5925,203378232.82903367
2,9, 1, 9, 0, 9, 0.00,60.00,Monday
213,199439011.67021185
5925,199439011.67021197
2,9, 1, 9, 0,10, 0.00,60.00,Monday
213,173738325.07045445
5925,173738325.07045445
2,9, 1, 9, 0,11, 0.00,60.00,Monday
213,157712757.8252675
5925,157712757.82526746
2,9, 1, 9, 0,12, 0.00,60.00,Monday
213,136953638.41722336
5925,136953638.41722333
2,9, 1, 9, 0,13, 0.00,60.00,Monday
213,140420523.99632168
5925,140420523.99632168
2,9, 1, 9, 0,14, 0.00,60.00,Monday
213,128188785.79744872
5925,128188785.79744875
2,9, 1, 9, 0,15, 0.00,60.00,Monday
213,116390755.04236697
5925,116390755.04236697
2,9, 1, 9, 0,16, 0.00,60.00,Monday
213,136444049.56250027
5925,136444049.5625003
2,9, 1, 9, 0,17, 0.00,60.00,Monday
213,155617662.17129958
5925,155617662.17129958
2,9, 1, 9, 0,18, 0.00,60.00,Monday
213,193175804.95701534
5925,193175804.95701566
2,9, 1, 9, 0,19, 0.00,60.00,Monday
213,234785395.73775032
5925,234785395.73775065
2,9, 1, 9, 0,20, 0.00,60.00,Monday
213,222488537.01306105
5925,222488537.0130614
2,9, 1, 9, 0,21, 0.00,60.00,Monday
213,226859961.733898
5925,226859961.73389834
2,9, 1, 9, 0,22, 0.00,60.00,Monday
213,198516001.95358396
5925,198516001.95358413
2,9, 1, 9, 0,23, 0.00,60.00,Monday
213,166316853.26429445
5925,166316853.26429445
2,9, 1, 9, 0,24, 0.00,60.00,Monday
213,137739740.51875713
5925,137739740.5187571
2,10, 1,10, 0, 1, 0.00,60.00,Tuesday
213,104463063.35829535
5925,104463063.35829532
2,10, 1,10, 0, 2, 0.00,60.00,Tuesday
213,108404972.02152923
5925,108404972.02152923
2,10, 1,10, 0, 3, 0.00,60.00,Tuesday
213,101376879.22913264
5925,101376879.22913265
2,10, 1,10, 0, 4, 0.00,60.00,Tuesday
213,94184131.4052396
5925,94184131.4052396
2,10, 1,10, 0, 5, 0.00,60.00,Tuesday
213,118557011.82157224
5925,118557011.82157224
2,10, 1,10, 0, 6, 0.00,60.00,Tuesday
213,135472602.5130705
5925,135472602.5130705
2,10, 1,10, 0, 7, 0.00,60.00,Tuesday
213,209360520.23541906
5925,209360520.23541903
2,10, 1,10, 0, 8, 0.00,60.00,Tuesday
213,202841566.87684888
5925,202841566.87684909
2,10, 1,10, 0, 9, 0.00,60.00,Tuesday
213,197093811.22350618
5925,197093811.2235063
2,10, 1,10, 0,10, 0.00,60.00,Tuesday
213,170304587.97724554
5925,170304587.97724557
2,10, 1,10, 0,11, 0.00,60.00,Tuesday
213,163047230.22281122
5925,163047230.2228112
2,10, 1,10, 0,12, 0.00,60.00,Tuesday
213,135934234.1155179
5925,135934234.1155179
2,10, 1,10, 0,13, 0.00,60.00,Tuesday
213,135962248.72048962
5925,135962248.72048962
2,10, 1,10, 0,14, 0.00,60.00,Tuesday
213,115727436.69146788
5925,115727436.69146787
2,10, 1,10, 0,15, 0.00,60.00,Tuesday
213,131876808.66672921
5925,131876808.66672918
2,10, 1,10, 0,16, 0.00,60.00,Tuesday
213,126411726.03285106
5925,126411726.03285103
2,10, 1,10, 0,17, 0.00,60.00,Tuesday
213,149265594.3836974
5925,149265594.38369742
2,10, 1,10, 0,18, 0.00,60.00,Tuesday
213,198926665.3476622
5925,198926665.34766257
2,10, 1,10, 0,19, 0.00,60.00,Tuesday
213,221560076.63583177
5925,221560076.6358321
2,10, 1,10, 0,20, 0.00,60.00,Tuesday
213,231165364.19004467
5925,231165364.190045
2,10, 1,10, 0,21, 0.00,60.00,Tuesday
213,209626027.787489
5925,209626027.78748932
2,10, 1,10, 0,22, 0.00,60.00,Tuesday
213,195256985.71989542
5925,195256985.7198956
2,10, 1,10, 0,23, 0.00,60.00,Tuesday
213,166374490.14853308
5925,166374490.14853308
2,10, 1,10, 0,24, 0.00,60.00,Tuesday
213,127826962.2388372
5925,127826962.2388372
2,11, 1,11, 0, 1, 0.00,60.00,Wednesday
213,109563221.02785194
5925,109563221.02785191
2,11, 1,11, 0, 2, 0.00,60.00,Wednesday
213,87361651.48748304
5925,87361651.48748305
2,11, 1,11, 0, 3, 0.00,60.00,Wednesday
213,103328963.06422648
5925,103328963.06422648
2,11, 1,11, 0, 4, 0.00,60.00,Wednesday
213,91689520.69196194
5925,91689520.69196194
2,11, 1,11, 0, 5, 0.00,60.00,Wednesday
213,93847814.11228034
5925,93847814.11228034
2,11, 1,11, 0, 6, 0.00,60.00,Wednesday
213,138716085.21883777
5925,138716085.21883777
2,11, 1,11, 0, 7, 0.00,60.00,Wednesday
213,191460609.36322808
5925,191460609.36322814
2,11, 1,11, 0, 8, 0.00,60.00,Wednesday
213,198290204.38296568
5925,198290204.38296568
2,11, 1,11, 0, 9, 0.00,60.00,Wednesday
213,185976895.18734655
5925,185976895.18734655
2,11, 1,11, 0,10, 0.00,60.00,Wednesday
213,174880535.3925081
5925,174880535.3925081
2,11, 1,11, 0,11, 0.00,60.00,Wednesday
213,160424703.4017964
5925,160424703.40179637
2,11, 1,11, 0,12, 0.00,60.00,Wednesday
213,150669418.85597137
5925,150669418.8559714
2,11, 1,11, 0,13, 0.00,60.00,Wednesday
213,140381750.18520448
5925,140381750.18520448
2,11, 1,11, 0,14, 0.00,60.00,Wednesday
213,136850810.76708925
5925,136850810.76708928
2,11, 1,11, 0,15, 0.00,60.00,Wednesday
213,129418283.35644881
5925,129418283.35644881
2,11, 1,11, 0,16, 0.00,60.00,Wednesday
213,148712055.62333646
5925,148712055.62333643
2,11, 1,11, 0,17, 0.00,60.00,Wednesday
213,168650466.1513324
5925,168650466.1513326
2,11, 1,11, 0,18, 0.00,60.00,Wednesday
213,204035123.06854805
5925,204035123.06854838
2,11, 1,11, 0,19, 0.00,60.00,Wednesday
213,244194124.4444881
5925,244194124.4444884
2,11, 1,11, 0,20, 0.00,60.00,Wednesday
213,236398080.60850337
5925,236398080.60850376
2,11, 1,11, 0,21, 0.00,60.00,Wednesday
213,223476479.38811886
5925,223476479.38811916
2,11, 1,11, 0,22, 0.00,60.00,Wednesday
213,202271668.067144
5925,202271668.06714424
2,11, 1,11, 0,23, 0.00,60.00,Wednesday
213,169961847.38414943
5925,169961847.38414943
2,11, 1,11, 0,24, 0.00,60.00,Wednesday
213,139418037.7161843
5925,139418037.7161843
2,12, 1,12, 0, 1, 0.00,60.00,Thursday
213,104702263.77757043
5925,104702263.77757041
2,12, 1,12, 0, 2, 0.00,60.00,Thursday
213,108545215.0630159
5925,108545215.0630159
2,12, 1,12, 0, 3, 0.00,60.00,Thursday
213,100476496.7226693
5925,100476496.7226693
2,12, 1,12, 0, 4, 0.00,60.00,Thursday
213,104168973.94350725
5925,104168973.94350722
2,12, 1,12, 0, 5, 0.00,60.00,Thursday
213,104519890.41433051
5925,104519890.41433053
2,12, 1,12, 0, 6, 0.00,60.00,Thursday
213,138930820.08052915
5925,138930820.08052915
2,12, 1,12, 0, 7, 0.00,60.00,Thursday
213,205638573.16372687
5925,205638573.16372687
2,12, 1,12, 0, 8, 0.00,60.00,Thursday
213,203505620.8413959
5925,203505620.84139606
2,12, 1,12, 0, 9, 0.00,60.00,Thursday
213,196868534.7931477
5925,196868534.79314786
2,12, 1,12, 0,10, 0.00,60.00,Thursday
213,178341235.38067463
5925,178341235.38067466
2,12, 1,12, 0,11, 0.00,60.00,Thursday
213,164051934.90936774
5925,164051934.90936777
2,12, 1,12, 0,12, 0.00,60.00,Thursday
213,153954562.18962705
5925,153954562.18962708
2,12, 1,12, 0,13, 0.00,60.00,Thursday
213,151903523.3307149
5925,151903523.3307149
2,12, 1,12, 0,14, 0.00,60.00,Thursday
213,138255123.59583676
5925,138255123.59583676
2,12, 1,12, 0,15, 0.00,60.00,Thursday
213,135404247.41963646
5925,135404247.4196365
2,12, 1,12, 0,16, 0.00,60.00,Thursday
213,148301855.7063101
5925,148301855.70631006
2,12, 1,12, 0,17, 0.00,60.00,Thursday
213,169053448.46160638
5925,169053448.4616066
2,12, 1,12, 0,18, 0.00,60.00,Thursday
213,216820252.1078577
5925,216820252.107858
2,12, 1,12, 0,19, 0.00,60.00,Thursday
213,238958742.3518675
5925,238958742.35186785
2,12, 1,12, 0,20, 0.00,60.00,Thursday
213,235659307.70648503
5925,235659307.7064854
2,12, 1,12, 0,21, 0.00,60.00,Thursday
213,228272457.47619116
5925,228272457.4761915
2,12, 1,12, 0,22, 0.00,60.00,Thursday
213,206156488.87849042
5925,206156488.87849063
2,12, 1,12, 0,23, 0.00,60.00,Thursday
213,166462593.95917818
5925,166462593.9591782
2,12, 1,12, 0,24, 0.00,60.00,Thursday
213,144777424.63804817
5925,144777424.63804817
2,13, 1,13, 0, 1, 0.00,60.00,Friday
213,112867993.83172658
5925,112867993.83172657
2,13, 1,13, 0, 2, 0.00,60.00,Friday
213,100222218.23551366
5925,100222218.23551366
2,13, 1,13, 0, 3, 0.00,60.00,Friday
213,111808668.66954169
5925,111808668.66954167
2,13, 1,13, 0, 4, 0.00,60.00,Friday
213,97999326.10339844
5925,97999326.10339844
2,13, 1,13, 0, 5, 0.00,60.00,Friday
213,111887643.87111837
5925,111887643.87111837
2,13, 1,13, 0, 6, 0.00,60.00,Friday
213,139971588.10779497
5925,139971588.107795
2,13, 1,13, 0, 7, 0.00,60.00,Friday
213,207269421.4222492
5925,207269421.42224923
2,13, 1,13, 0, 8, 0.00,60.00,Friday
213,203214290.42390108
5925,203214290.42390132
2,13, 1,13, 0, 9, 0.00,60.00,Friday
213,196931144.0302428
5925,196931144.03024292
2,13, 1,13, 0,10, 0.00,60.00,Friday
213,175066249.06794035
5925,175066249.06794035
2,13, 1,13, 0,11, 0.00,60.00,Friday
213,170250829.24715853
5925,170250829.24715853
2,13, 1,13, 0,12, 0.00,60.00,Friday
213,154789573.85541868
5925,154789573.85541868
2,13, 1,13, 0,13, 0.00,60.00,Friday
213,145706813.97953895
5925,145706813.97953892
2,13, 1,13, 0,14, 0.00,60.00,Friday
213,139062577.3636941
5925,139062577.3636941
2,13, 1,13, 0,15, 0.00,60.00,Friday
213,138728967.85841992
5925,138728967.85841995
2,13, 1,13, 0,16, 0.00,60.00,Friday
213,141383393.34601074
5925,141383393.3460107
2,13, 1,13, 0,17, 0.00,60.00,Friday
213,171821946.905138
5925,171821946.90513813
2,13, 1,13, 0,18, 0.00,60.00,Friday
213,212263567.7601283
5925,212263567.76012862
2,13, 1,13, 0,19, 0.00,60.00,Friday
213,243784725.34172267
5925,243784725.34172308
2,13, 1,13, 0,20, 0.00,60.00,Friday
213,237954229.4634645
5925,237954229.46346474
2,13, 1,13, 0,21, 0.00,60.00,Friday
213,227720801.19292867
5925,227720801.19292897
2,13, 1,13, 0,22, 0.00,60.00,Friday
213,203544860.5441513
5925,203544860.5441515
2,13, 1,13, 0,23, 0.00,60.00,Friday
213,175825926.20582035
5925,175825926.20582032
2,13, 1,13, 0,24, 0.00,60.00,Friday
213,137291448.33257422
5925,137291448.3325742
2,14, 1,14, 0, 1, 0.00,60.00,Saturday
213,115958381.38240421
5925,115958381.38240421
2,14, 1,14, 0, 2, 0.00,60.00,Saturday
213,104218566.2805987
5925,104218566.2805987
2,14, 1,14, 0, 3, 0.00,60.00,Saturday
213,100770250.23069093
5925,100770250.23069093
2,14, 1,14, 0, 4, 0.00,60.00,Saturday
213,106995980.02291456
5925,106995980.02291456
2,14, 1,14, 0, 5, 0.00,60.00,Saturday
213,108079364.29698542
5925,108079364.29698542
2,14, 1,14, 0, 6, 0.00,60.00,Saturday
213,137637300.81278738
5925,137637300.8127874
2,14, 1,14, 0, 7, 0.00,60.00,Saturday
213,209361703.58069766
5925,209361703.58069772
2,14, 1,14, 0, 8, 0.00,60.00,Saturday
213,204782840.0588052
5925,204782840.05880544
2,14, 1,14, 0, 9, 0.00,60.00,Saturday
213,189693736.2608993
5925,189693736.26089936
2,14, 1,14, 0,10, 0.00,60.00,Saturday
213,181345806.337501
5925,181345806.33750105
2,14, 1,14, 0,11, 0.00,60.00,Saturday
213,157518667.7043273
5925,157518667.7043273
2,14, 1,14, 0,12, 0.00,60.00,Saturday
213,151572005.98682606
5925,151572005.98682606
2,14, 1,14, 0,13, 0.00,60.00,Saturday
213,146358529.50395358
5925,146358529.50395358
2,14, 1,14, 0,14, 0.00,60.00,Saturday
213,138843528.41425544
5925,138843528.41425547
2,14, 1,14, 0,15, 0.00,60.00,Saturday
213,130385640.78957185
5925,130385640.78957184
2,14, 1,14, 0,16, 0.00,60.00,Saturday
213,149301741.6545041
5925,149301741.6545041
2,14, 1,14, 0,17, 0.00,60.00,Saturday
213,168785162.22598037
5925,168785162.22598058
2,14, 1,14, 0,18, 0.00,60.00,Saturday
213,211655689.8882802
5925,211655689.8882805
2,14, 1,14, 0,19, 0.00,60.00,Saturday
213,247077285.59901342
5925,247077285.59901384
2,14, 1,14, 0,20, 0.00,60.00,Saturday
213,230539899.46883294
5925,230539899.46883324
2,14, 1,14, 0,21, 0.00,60.00,Saturday
213,236691674.48554003
5925,236691674.4855404
2,14, 1,14, 0,22, 0.00,60.00,Saturday
213,204092389.9264605
5925,204092389.9264608
2,14, 1,14, 0,23, 0.00,60.00,Saturday
213,176666931.59480458
5925,176666931.59480464
2,14, 1,14, 0,24, 0.00,60.00,Saturday
213,134554219.10519835
5925,134554219.10519832
2,15, 1,15, 0, 1, 0.00,60.00,Sunday
213,109401354.52215838
5925,109401354.52215837
2,15, 1,15, 0, 2, 0.00,60.00,Sunday
213,109409827.67703833
5925,109409827.67703833
2,15, 1,15, 0, 3, 0.00,60.00,Sunday
213,103413041.21291286
5925,103413041.21291287
2,15, 1,15, 0, 4, 0.00,60.00,Sunday
213,99207287.99760425
5925,99207287.99760425
2,15, 1,15, 0, 5, 0.00,60.00,Sunday
213,115080226.33503103
5925,115080226.33503103
2,15, 1,15, 0, 6, 0.00,60.00,Sunday
213,137092711.34442735
5925,137092711.34442735
2,15, 1,15, 0, 7, 0.00,60.00,Sunday
213,204742245.79658014
5925,204742245.79658017
2,15, 1,15, 0, 8, 0.00,60.00,Sunday
213,204528630.15797794
5925,204528630.15797806
2,15, 1,15, 0, 9, 0.00,60.00,Sunday
213,193934123.02636093
5925,193934123.02636096
2,15, 1,15, 0,10, 0.00,60.00,Sunday
213,175337582.7639921
5925,175337582.7639921
2,15, 1,15, 0,11, 0.00,60.00,Sunday
213,164362115.5176225
5925,164362115.5176225
2,15, 1,15, 0,12, 0.00,60.00,Sunday
213,151600655.0932523
5925,151600655.0932523
2,15, 1,15, 0,13, 0.00,60.00,Sunday
213,149518050.60953128
5925,149518050.6095313
2,15, 1,15, 0,14, 0.00,60.00,Sunday
213,131455187.08509156
5925,131455187.08509153
2,15, 1,15, 0,15, 0.00,60.00,Sunday
213,141301056.74245444
5925,141301056.74245447
2,15, 1,15, 0,16, 0.00,60.00,Sunday
213,142547240.92835152
5925,142547240.92835152
2,15, 1,15, 0,17, 0.00,60.00,Sunday
213,164534603.2267682