Program Version,EnergyPlus, Version 26.1.0-6f2e40d102, YMD=2026.04.14 19:02
1,5,Environment Title[],Latitude[deg],Longitude[deg],Time Zone[],Elevation[m]
2,8,Day of Simulation[],Month[],Day of Month[],DST Indicator[1=yes 0=no],Hour[],StartMinute[],EndMinute[],DayType
3,5,Cumulative Day of Simulation[],Month[],Day of Month[],DST Indicator[1=yes 0=no],DayType  ! When Daily Meters Requested
4,2,Cumulative Days of Simulation[],Month[]  ! When Monthly Meters Requested
5,1,Cumulative Days of Simulation[] ! When Run Period Meters Requested
6,1,Calendar Year of Simulation[] ! When Annual Meters Requested
213,1,Electricity:Facility [J] !Hourly
5925,1,ElectricityNet:Facility [J] !Hourly
End of Data Dictionary
1,RUNPERIOD 1,  28.11, 112.79,   8.00, 120.00
2,1, 1, 1, 0, 1, 0.00,60.00,Sunday
213,91263293.02422154
5925,91263293.02422152
2,1, 1, 1, 0, 2, 0.00,60.00,Sunday
213,94931126.76371263
5925,94931126.76371263
2,1, 1, 1, 0, 3, 0.00,60.00,Sunday
213,99848298.51855332
5925,99848298.51855333
2,1, 1, 1, 0, 4, 0.00,60.00,Sunday
213,93189343.06494078
5925,93189343.06494075
2,1, 1, 1, 0, 5, 0.00,60.00,Sunday
213,103151898.10563385
5925,103151898.10563385
2,1, 1, 1, 0, 6, 0.00,60.00,Sunday
213,129823341.38861427
5925,129823341.3886143
2,1, 1, 1, 0, 7, 0.00,60.00,Sunday
213,195099036.29066443
5925,195099036.2906644
2,1, 1, 1, 0, 8, 0.00,60.00,Sunday
213,199003305.9383253
5925,199003305.93832523
2,1, 1, 1, 0, 9, 0.00,60.00,Sunday
213,178919685.12478763
5925,178919685.12478763
2,1, 1, 1, 0,10, 0.00,60.00,Sunday
213,159237354.56828046
5925,159237354.56828043
2,1, 1, 1, 0,11, 0.00,60.00,Sunday
213,160113683.26398265
5925,160113683.26398265
2,1, 1, 1, 0,12, 0.00,60.00,Sunday
213,142081257.366373
5925,142081257.366373
2,1, 1, 1, 0,13, 0.00,60.00,Sunday
213,131092411.02789032
5925,131092411.02789031
2,1, 1, 1, 0,14, 0.00,60.00,Sunday
213,136308491.62899512
5925,136308491.62899515
2,1, 1, 1, 0,15, 0.00,60.00,Sunday
213,115919465.88643903
5925,115919465.886439
2,1, 1, 1, 0,16, 0.00,60.00,Sunday
213,141865952.04320702
5925,141865952.04320705
2,1, 1, 1, 0,17, 0.00,60.00,Sunday
213,161509417.84885547
5925,161509417.8488556
2,1, 1, 1, 0,18, 0.00,60.00,Sunday
213,202121977.57393384
5925,202121977.57393417
2,1, 1, 1, 0,19, 0.00,60.00,Sunday
213,240084759.74557024
5925,240084759.74557054
2,1, 1, 1, 0,20, 0.00,60.00,Sunday
213,223647171.25850022
5925,223647171.25850052
2,1, 1, 1, 0,21, 0.00,60.00,Sunday
213,226748684.05016547
5925,226748684.05016583
2,1, 1, 1, 0,22, 0.00,60.00,Sunday
213,197573912.5342784
5925,197573912.53427854
2,1, 1, 1, 0,23, 0.00,60.00,Sunday
213,168483946.36735338
5925,168483946.36735335
2,1, 1, 1, 0,24, 0.00,60.00,Sunday
213,130580108.20294115
5925,130580108.20294113
2,2, 1, 2, 0, 1, 0.00,60.00,Holiday
213,98880088.83059943
5925,98880088.83059944
2,2, 1, 2, 0, 2, 0.00,60.00,Holiday
213,101889841.48161316
5925,101889841.48161316
2,2, 1, 2, 0, 3, 0.00,60.00,Holiday
213,93703602.30860916
5925,93703602.30860916
2,2, 1, 2, 0, 4, 0.00,60.00,Holiday
213,87675302.4995366
5925,87675302.4995366
2,2, 1, 2, 0, 5, 0.00,60.00,Holiday
213,103889117.40505558
5925,103889117.40505557
2,2, 1, 2, 0, 6, 0.00,60.00,Holiday
213,130574145.85377783
5925,130574145.85377783
2,2, 1, 2, 0, 7, 0.00,60.00,Holiday
213,196384419.7346774
5925,196384419.73467743
2,2, 1, 2, 0, 8, 0.00,60.00,Holiday
213,200509499.56051034
5925,200509499.56051034
2,2, 1, 2, 0, 9, 0.00,60.00,Holiday
213,180097320.23796368
5925,180097320.23796368
2,2, 1, 2, 0,10, 0.00,60.00,Holiday
213,160352352.15490153
5925,160352352.15490156
2,2, 1, 2, 0,11, 0.00,60.00,Holiday
213,161459488.82286888
5925,161459488.82286885
2,2, 1, 2, 0,12, 0.00,60.00,Holiday
213,147923293.3957463
5925,147923293.39574632
2,2, 1, 2, 0,13, 0.00,60.00,Holiday
213,139640977.49454206
5925,139640977.49454206
2,2, 1, 2, 0,14, 0.00,60.00,Holiday
213,124199722.24832876
5925,124199722.24832875
2,2, 1, 2, 0,15, 0.00,60.00,Holiday
213,129152600.99030283
5925,129152600.99030283
2,2, 1, 2, 0,16, 0.00,60.00,Holiday
213,127886807.44205603
5925,127886807.44205602
2,2, 1, 2, 0,17, 0.00,60.00,Holiday
213,169045055.72194827
5925,169045055.7219484
2,2, 1, 2, 0,18, 0.00,60.00,Holiday
213,199215765.164697
5925,199215765.16469735
2,2, 1, 2, 0,19, 0.00,60.00,Holiday
213,240895884.0337414
5925,240895884.03374177
2,2, 1, 2, 0,20, 0.00,60.00,Holiday
213,230898299.49048305
5925,230898299.49048343
2,2, 1, 2, 0,21, 0.00,60.00,Holiday
213,217471359.70202154
5925,217471359.7020219
2,2, 1, 2, 0,22, 0.00,60.00,Holiday
213,195013994.24565974
5925,195013994.24565992
2,2, 1, 2, 0,23, 0.00,60.00,Holiday
213,169235766.0092948
5925,169235766.00929484
2,2, 1, 2, 0,24, 0.00,60.00,Holiday
213,131363298.33039789
5925,131363298.3303979
2,3, 1, 3, 0, 1, 0.00,60.00,Tuesday
213,112784030.2797273
5925,112784030.27972728
2,3, 1, 3, 0, 2, 0.00,60.00,Tuesday
213,96670109.77685452
5925,96670109.77685452
2,3, 1, 3, 0, 3, 0.00,60.00,Tuesday
213,88414067.2414421
5925,88414067.2414421
2,3, 1, 3, 0, 4, 0.00,60.00,Tuesday
213,100887955.7573385
5925,100887955.7573385
2,3, 1, 3, 0, 5, 0.00,60.00,Tuesday
213,98719591.7736102
5925,98719591.7736102
2,3, 1, 3, 0, 6, 0.00,60.00,Tuesday
213,132104536.60550676
5925,132104536.60550676
2,3, 1, 3, 0, 7, 0.00,60.00,Tuesday
213,197566260.02125496
5925,197566260.02125496
2,3, 1, 3, 0, 8, 0.00,60.00,Tuesday
213,193943046.90578702
5925,193943046.90578705
2,3, 1, 3, 0, 9, 0.00,60.00,Tuesday
213,192770777.51686665
5925,192770777.51686662
2,3, 1, 3, 0,10, 0.00,60.00,Tuesday
213,171183956.7242473
5925,171183956.7242473
2,3, 1, 3, 0,11, 0.00,60.00,Tuesday
213,160416350.32789794
5925,160416350.32789794
2,3, 1, 3, 0,12, 0.00,60.00,Tuesday
213,145559428.71330073
5925,145559428.71330073
2,3, 1, 3, 0,13, 0.00,60.00,Tuesday
213,143967433.74560153
5925,143967433.7456015
2,3, 1, 3, 0,14, 0.00,60.00,Tuesday
213,129023001.57818559
5925,129023001.57818559
2,3, 1, 3, 0,15, 0.00,60.00,Tuesday
213,141676855.3540362
5925,141676855.35403627
2,3, 1, 3, 0,16, 0.00,60.00,Tuesday
213,146756420.93995732
5925,146756420.9399573
2,3, 1, 3, 0,17, 0.00,60.00,Tuesday
213,153896909.03707704
5925,153896909.0370772
2,3, 1, 3, 0,18, 0.00,60.00,Tuesday
213,214546719.56583732
5925,214546719.56583768
2,3, 1, 3, 0,19, 0.00,60.00,Tuesday
213,228211180.76726484
5925,228211180.76726526
2,3, 1, 3, 0,20, 0.00,60.00,Tuesday
213,239026218.74821228
5925,239026218.7482126
2,3, 1, 3, 0,21, 0.00,60.00,Tuesday
213,214741564.38815263
5925,214741564.38815293
2,3, 1, 3, 0,22, 0.00,60.00,Tuesday
213,198769587.57109147
5925,198769587.5710916
2,3, 1, 3, 0,23, 0.00,60.00,Tuesday
213,169574352.93923646
5925,169574352.93923646
2,3, 1, 3, 0,24, 0.00,60.00,Tuesday
213,131027931.22454868
5925,131027931.22454868
2,4, 1, 4, 0, 1, 0.00,60.00,Wednesday
213,105454255.52060471
5925,105454255.5206047
2,4, 1, 4, 0, 2, 0.00,60.00,Wednesday
213,96842475.80684105
5925,96842475.80684108
2,4, 1, 4, 0, 3, 0.00,60.00,Wednesday
213,102276119.81007428
5925,102276119.81007428
2,4, 1, 4, 0, 4, 0.00,60.00,Wednesday
213,95543909.1874847
5925,95543909.1874847
2,4, 1, 4, 0, 5, 0.00,60.00,Wednesday
213,92015481.01272878
5925,92015481.01272877
2,4, 1, 4, 0, 6, 0.00,60.00,Wednesday
213,132077953.68408611
5925,132077953.68408611
2,4, 1, 4, 0, 7, 0.00,60.00,Wednesday
213,197413468.28329867
5925,197413468.28329864
2,4, 1, 4, 0, 8, 0.00,60.00,Wednesday
213,201804475.39291644
5925,201804475.39291647
2,4, 1, 4, 0, 9, 0.00,60.00,Wednesday
213,185526842.48811525
5925,185526842.48811522
2,4, 1, 4, 0,10, 0.00,60.00,Wednesday
213,179005732.00377107
5925,179005732.00377107
2,4, 1, 4, 0,11, 0.00,60.00,Wednesday
213,152270713.57385564
5925,152270713.57385564
2,4, 1, 4, 0,12, 0.00,60.00,Wednesday
213,150861177.6410238
5925,150861177.6410238
2,4, 1, 4, 0,13, 0.00,60.00,Wednesday
213,141187875.08817855
5925,141187875.08817855
2,4, 1, 4, 0,14, 0.00,60.00,Wednesday
213,139489386.99257982
5925,139489386.99257982
2,4, 1, 4, 0,15, 0.00,60.00,Wednesday
213,119189986.84314425
5925,119189986.84314424
2,4, 1, 4, 0,16, 0.00,60.00,Wednesday
213,144806838.3532586
5925,144806838.3532586
2,4, 1, 4, 0,17, 0.00,60.00,Wednesday
213,172131064.84522575
5925,172131064.8452259
2,4, 1, 4, 0,18, 0.00,60.00,Wednesday
213,199250331.21529475
5925,199250331.21529508
2,4, 1, 4, 0,19, 0.00,60.00,Wednesday
213,240106049.27675244
5925,240106049.27675277
2,4, 1, 4, 0,20, 0.00,60.00,Wednesday
213,215693334.8909
5925,215693334.89090034
2,4, 1, 4, 0,21, 0.00,60.00,Wednesday
213,232785500.97008568
5925,232785500.970086
2,4, 1, 4, 0,22, 0.00,60.00,Wednesday
213,191841428.61196312
5925,191841428.6119633
2,4, 1, 4, 0,23, 0.00,60.00,Wednesday
213,154702137.80344847
5925,154702137.80344844
2,4, 1, 4, 0,24, 0.00,60.00,Wednesday
213,143366582.50216472
5925,143366582.5021647
2,5, 1, 5, 0, 1, 0.00,60.00,Thursday
213,98508180.3107435
5925,98508180.31074345
2,5, 1, 5, 0, 2, 0.00,60.00,Thursday
213,108535330.75169076
5925,108535330.75169076
2,5, 1, 5, 0, 3, 0.00,60.00,Thursday
213,87431207.94311401
5925,87431207.94311404
2,5, 1, 5, 0, 4, 0.00,60.00,Thursday
213,86691610.02040091
5925,86691610.02040088
2,5, 1, 5, 0, 5, 0.00,60.00,Thursday
213,110213630.10348086
5925,110213630.10348086
2,5, 1, 5, 0, 6, 0.00,60.00,Thursday
213,130590698.91221726
5925,130590698.91221726
2,5, 1, 5, 0, 7, 0.00,60.00,Thursday
213,196669406.21367007
5925,196669406.21367007
2,5, 1, 5, 0, 8, 0.00,60.00,Thursday
213,193361085.44958496
5925,193361085.449585
2,5, 1, 5, 0, 9, 0.00,60.00,Thursday
213,191384586.82135192
5925,191384586.8213519
2,5, 1, 5, 0,10, 0.00,60.00,Thursday
213,154698056.94576484
5925,154698056.9457648
2,5, 1, 5, 0,11, 0.00,60.00,Thursday
213,169556514.40261894
5925,169556514.40261897
2,5, 1, 5, 0,12, 0.00,60.00,Thursday
213,140190816.39654014
5925,140190816.39654016
2,5, 1, 5, 0,13, 0.00,60.00,Thursday
213,132093587.66720884
5925,132093587.66720887
2,5, 1, 5, 0,14, 0.00,60.00,Thursday
213,128588915.37911475
5925,128588915.37911472
2,5, 1, 5, 0,15, 0.00,60.00,Thursday
213,134211270.38190442
5925,134211270.38190442
2,5, 1, 5, 0,16, 0.00,60.00,Thursday
213,125551375.48800868
5925,125551375.48800866
2,5, 1, 5, 0,17, 0.00,60.00,Thursday
213,159999677.56952623
5925,159999677.56952643
2,5, 1, 5, 0,18, 0.00,60.00,Thursday
213,195488656.7256566
5925,195488656.72565696
2,5, 1, 5, 0,19, 0.00,60.00,Thursday
213,237374666.04588765
5925,237374666.045888
2,5, 1, 5, 0,20, 0.00,60.00,Thursday
213,234865791.83578938
5925,234865791.83578974
2,5, 1, 5, 0,21, 0.00,60.00,Thursday
213,211046978.24782538
5925,211046978.24782577
2,5, 1, 5, 0,22, 0.00,60.00,Thursday
213,195414532.47043762
5925,195414532.4704378
2,5, 1, 5, 0,23, 0.00,60.00,Thursday
213,166252855.91275698
5925,166252855.91275698
2,5, 1, 5, 0,24, 0.00,60.00,Thursday
213,127575569.92236358
5925,127575569.92236356
2,6, 1, 6, 0, 1, 0.00,60.00,Friday
213,102558248.46439408
5925,102558248.46439406
2,6, 1, 6, 0, 2, 0.00,60.00,Friday
213,92916991.08437543
5925,92916991.08437543
2,6, 1, 6, 0, 3, 0.00,60.00,Friday
213,92407423.80274463
5925,92407423.80274463
2,6, 1, 6, 0, 4, 0.00,60.00,Friday
213,97987017.92532837
5925,97987017.92532834
2,6, 1, 6, 0, 5, 0.00,60.00,Friday
213,94886096.19420996
5925,94886096.19420993
2,6, 1, 6, 0, 6, 0.00,60.00,Friday
213,122285744.28265433
5925,122285744.28265435
2,6, 1, 6, 0, 7, 0.00,60.00,Friday
213,199915344.36953932
5925,199915344.36953932
2,6, 1, 6, 0, 8, 0.00,60.00,Friday
213,192765450.17714763
5925,192765450.17714763
2,6, 1, 6, 0, 9, 0.00,60.00,Friday
213,180912857.65767145
5925,180912857.65767145
2,6, 1, 6, 0,10, 0.00,60.00,Friday
213,172349074.46595323
5925,172349074.46595323
2,6, 1, 6, 0,11, 0.00,60.00,Friday
213,143920720.2028804
5925,143920720.20288038
2,6, 1, 6, 0,12, 0.00,60.00,Friday
213,142042698.44109678
5925,142042698.4410968
2,6, 1, 6, 0,13, 0.00,60.00,Friday
213,132320738.84000559
5925,132320738.84000559
2,6, 1, 6, 0,14, 0.00,60.00,Friday
213,116785020.81596147
5925,116785020.81596144
2,6, 1, 6, 0,15, 0.00,60.00,Friday
213,128760963.94558313
5925,128760963.94558313
2,6, 1, 6, 0,16, 0.00,60.00,Friday
213,133738936.90275893
5925,133738936.9027589
2,6, 1, 6, 0,17, 0.00,60.00,Friday
213,141407312.87930843
5925,141407312.87930843
2,6, 1, 6, 0,18, 0.00,60.00,Friday
213,204330494.08646423
5925,204330494.08646458
2,6, 1, 6, 0,19, 0.00,60.00,Friday
213,220569937.99747014
5925,220569937.9974705
2,6, 1, 6, 0,20, 0.00,60.00,Friday
213,231654125.01444334
5925,231654125.01444367
2,6, 1, 6, 0,21, 0.00,60.00,Friday
213,208985489.1698249
5925,208985489.16982526
2,6, 1, 6, 0,22, 0.00,60.00,Friday
213,186293332.49597108
5925,186293332.49597126
2,6, 1, 6, 0,23, 0.00,60.00,Friday
213,172775265.60318762
5925,172775265.60318762
2,6, 1, 6, 0,24, 0.00,60.00,Friday
213,127755945.23402023
5925,127755945.23402023
2,7, 1, 7, 0, 1, 0.00,60.00,Saturday
213,103349620.33171178
5925,103349620.33171177
2,7, 1, 7, 0, 2, 0.00,60.00,Saturday
213,95702835.4291231
5925,95702835.4291231
2,7, 1, 7, 0, 3, 0.00,60.00,Saturday
213,100908103.09712395
5925,100908103.09712397
2,7, 1, 7, 0, 4, 0.00,60.00,Saturday
213,94333470.16872746
5925,94333470.16872743
2,7, 1, 7, 0, 5, 0.00,60.00,Saturday
213,91403909.50554828
5925,91403909.50554828
2,7, 1, 7, 0, 6, 0.00,60.00,Saturday
213,141844950.29143906
5925,141844950.29143906
2,7, 1, 7, 0, 7, 0.00,60.00,Saturday
213,186679197.75786048
5925,186679197.75786045
2,7, 1, 7, 0, 8, 0.00,60.00,Saturday
213,206653854.4406068
5925,206653854.44060677
2,7, 1, 7, 0, 9, 0.00,60.00,Saturday
213,174100051.630831
5925,174100051.63083106
2,7, 1, 7, 0,10, 0.00,60.00,Saturday
213,171399872.97753286
5925,171399872.9775329
2,7, 1, 7, 0,11, 0.00,60.00,Saturday
213,145606006.36451146
5925,145606006.36451143
2,7, 1, 7, 0,12, 0.00,60.00,Saturday
213,144745342.69014367
5925,144745342.69014364
2,7, 1, 7, 0,13, 0.00,60.00,Saturday
213,124762709.06028655
5925,124762709.06028654
2,7, 1, 7, 0,14, 0.00,60.00,Saturday
213,128413010.18587151
5925,128413010.18587151
2,7, 1, 7, 0,15, 0.00,60.00,Saturday
213,106195002.90559533
5925,106195002.90559532
2,7, 1, 7, 0,16, 0.00,60.00,Saturday
213,131807251.42034636
5925,131807251.42034635
2,7, 1, 7, 0,17, 0.00,60.00,Saturday
213,160824937.73481995
5925,160824937.73481995
2,7, 1, 7, 0,18, 0.00,60.00,Saturday
213,193198960.97710595
5925,193198960.97710627
2,7, 1, 7, 0,19, 0.00,60.00,Saturday
213,235726876.22185272
5925,235726876.22185308
2,7, 1, 7, 0,20, 0.00,60.00,Saturday
213,213317025.82772005
5925,213317025.82772043
2,7, 1, 7, 0,21, 0.00,60.00,Saturday
213,230049690.07588372
5925,230049690.0758841
2,7, 1, 7, 0,22, 0.00,60.00,Saturday
213,187342646.92422196
5925,187342646.9242221
2,7, 1, 7, 0,23, 0.00,60.00,Saturday
213,166152151.47678396
5925,166152151.47678396
2,7, 1, 7, 0,24, 0.00,60.00,Saturday
213,128080664.5221082
5925,128080664.5221082
2,8, 1, 8, 0, 1, 0.00,60.00,Sunday
213,96840967.81071179
5925,96840967.81071177
2,8, 1, 8, 0, 2, 0.00,60.00,Sunday
213,107945487.56534797
5925,107945487.565348
2,8, 1, 8, 0, 3, 0.00,60.00,Sunday
213,87219864.33349726
5925,87219864.33349726
2,8, 1, 8, 0, 4, 0.00,60.00,Sunday
213,86943144.62333354
5925,86943144.62333354
2,8, 1, 8, 0, 5, 0.00,60.00,Sunday
213,111059653.227564
5925,111059653.22756399
2,8, 1, 8, 0, 6, 0.00,60.00,Sunday
213,130910358.1705761
5925,130910358.1705761
2,8, 1, 8, 0, 7, 0.00,60.00,Sunday
213,196770686.98226726
5925,196770686.98226723
2,8, 1, 8, 0, 8, 0.00,60.00,Sunday
213,197720021.7265408
5925,197720021.72654083
2,8, 1, 8, 0, 9, 0.00,60.00,Sunday
213,182621785.79904628
5925,182621785.79904622
2,8, 1, 8, 0,10, 0.00,60.00,Sunday
213,166132993.49271196
5925,166132993.492712
2,8, 1, 8, 0,11, 0.00,60.00,Sunday
213,145185938.50358585
5925,145185938.50358582
2,8, 1, 8, 0,12, 0.00,60.00,Sunday
213,137148341.44748816
5925,137148341.44748816
2,8, 1, 8, 0,13, 0.00,60.00,Sunday
213,129691645.38063957
5925,129691645.38063955
2,8, 1, 8, 0,14, 0.00,60.00,Sunday
213,112765513.22663945
5925,112765513.22663942
2,8, 1, 8, 0,15, 0.00,60.00,Sunday
213,117579677.3715611
5925,117579677.3715611
2,8, 1, 8, 0,16, 0.00,60.00,Sunday
213,119628034.61243933
5925,119628034.61243933
2,8, 1, 8, 0,17, 0.00,60.00,Sunday
213,147843228.5277458
5925,147843228.5277458
2,8, 1, 8, 0,18, 0.00,60.00,Sunday
213,211342073.36537546
5925,211342073.36537576
2,8, 1, 8, 0,19, 0.00,60.00,Sunday
213,212190333.98010656
5925,212190333.98010692
2,8, 1, 8, 0,20, 0.00,60.00,Sunday
213,231371800.93778127
5925,231371800.93778166
2,8, 1, 8, 0,21, 0.00,60.00,Sunday
213,208204910.48076475
5925,208204910.48076507
2,8, 1, 8, 0,22, 0.00,60.00,Sunday
213,193292843.37163123
5925,193292843.37163135
2,8, 1, 8, 0,23, 0.00,60.00,Sunday
213,164809746.58311054
5925,164809746.5831105
2,8, 1, 8, 0,24, 0.00,60.00,Sunday
213,126885565.28309497
5925,126885565.28309497
2,9, 1, 9, 0, 1, 0.00,60.00,Monday
213,108987890.75567341
5925,108987890.75567338
2,9, 1, 9, 0, 2, 0.00,60.00,Monday
213,87594937.48389804
5925,87594937.48389804
2,9, 1, 9, 0, 3, 0.00,60.00,Monday
213,104348332.01535115
5925,104348332.01535116
2,9, 1, 9, 0, 4, 0.00,60.00,Monday
213,88760852.79368508
5925,88760852.79368508
2,9, 1, 9, 0, 5, 0.00,60.00,Monday
213,97893979.88048154
5925,97893979.88048151
2,9, 1, 9, 0, 6, 0.00,60.00,Monday
213,131279880.10825235
5925,131279880.10825235
2,9, 1, 9, 0, 7, 0.00,60.00,Monday
213,197508233.94569927
5925,197508233.94569927
2,9, 1, 9, 0, 8, 0.00,60.00,Monday
213,194661615.48602432
5925,194661615.4860244
2,9, 1, 9, 0, 9, 0.00,60.00,Monday
213,191617106.1820818
5925,191617106.18208182
2,9, 1, 9, 0,10, 0.00,60.00,Monday
213,167205407.47804815
5925,167205407.4780481
2,9, 1, 9, 0,11, 0.00,60.00,Monday
213,152694651.14350566
5925,152694651.1435057
2,9, 1, 9, 0,12, 0.00,60.00,Monday
213,133882644.34313637
5925,133882644.34313637
2,9, 1, 9, 0,13, 0.00,60.00,Monday
213,138279708.22413495
5925,138279708.22413495
2,9, 1, 9, 0,14, 0.00,60.00,Monday
213,124984868.96276742
5925,124984868.96276739
2,9, 1, 9, 0,15, 0.00,60.00,Monday
213,113626111.39787135
5925,113626111.39787132
2,9, 1, 9, 0,16, 0.00,60.00,Monday
213,134120995.91724485
5925,134120995.91724482
2,9, 1, 9, 0,17, 0.00,60.00,Monday
213,153688440.63792238
5925,153688440.63792235
2,9, 1, 9, 0,18, 0.00,60.00,Monday
213,190186928.76894367
5925,190186928.76894397
2,9, 1, 9, 0,19, 0.00,60.00,Monday
213,229836934.2981771
5925,229836934.29817742
2,9, 1, 9, 0,20, 0.00,60.00,Monday
213,216948367.09260216
5925,216948367.0926025
2,9, 1, 9, 0,21, 0.00,60.00,Monday
213,220991876.53703645
5925,220991876.53703678
2,9, 1, 9, 0,22, 0.00,60.00,Monday
213,192439782.680633
5925,192439782.6806332
2,9, 1, 9, 0,23, 0.00,60.00,Monday
213,160124487.57409298
5925,160124487.57409295
2,9, 1, 9, 0,24, 0.00,60.00,Monday
213,130740483.90804568
5925,130740483.90804568
2,10, 1,10, 0, 1, 0.00,60.00,Tuesday
213,96895741.345505
5925,96895741.34550497
2,10, 1,10, 0, 2, 0.00,60.00,Tuesday
213,100456012.75290596
5925,100456012.75290596
2,10, 1,10, 0, 3, 0.00,60.00,Tuesday
213,93870600.29662594
5925,93870600.29662594
2,10, 1,10, 0, 4, 0.00,60.00,Tuesday
213,86309766.29034021
5925,86309766.29034021
2,10, 1,10, 0, 5, 0.00,60.00,Tuesday
213,110557170.90586844
5925,110557170.90586843
2,10, 1,10, 0, 6, 0.00,60.00,Tuesday
213,127234790.33994786
5925,127234790.33994786
2,10, 1,10, 0, 7, 0.00,60.00,Tuesday
213,200831792.43605104
5925,200831792.436051
2,10, 1,10, 0, 8, 0.00,60.00,Tuesday
213,194217947.67711368
5925,194217947.67711374
2,10, 1,10, 0, 9, 0.00,60.00,Tuesday
213,188566844.2845372
5925,188566844.2845372
2,10, 1,10, 0,10, 0.00,60.00,Tuesday
213,163738417.7554447
5925,163738417.75544477
2,10, 1,10, 0,11, 0.00,60.00,Tuesday
213,158675710.86453408
5925,158675710.86453408
2,10, 1,10, 0,12, 0.00,60.00,Tuesday
213,133247469.68530053
5925,133247469.68530051
2,10, 1,10, 0,13, 0.00,60.00,Tuesday
213,133623540.85888861
5925,133623540.8588886
2,10, 1,10, 0,14, 0.00,60.00,Tuesday
213,113166478.1743699
5925,113166478.17436992
2,10, 1,10, 0,15, 0.00,60.00,Tuesday
213,129235365.03994045
5925,129235365.03994043
2,10, 1,10, 0,16, 0.00,60.00,Tuesday
213,124509400.5537298
5925,124509400.55372977
2,10, 1,10, 0,17, 0.00,60.00,Tuesday
213,147875341.91374898
5925,147875341.91374895
2,10, 1,10, 0,18, 0.00,60.00,Tuesday
213,196971170.07605118
5925,196971170.0760515
2,10, 1,10, 0,19, 0.00,60.00,Tuesday
213,218582302.6883115
5925,218582302.68831185
2,10, 1,10, 0,20, 0.00,60.00,Tuesday
213,227185687.94239706
5925,227185687.9423974
2,10, 1,10, 0,21, 0.00,60.00,Tuesday
213,204729813.2809373
5925,204729813.28093764
2,10, 1,10, 0,22, 0.00,60.00,Tuesday
213,190027821.5147289
5925,190027821.51472908
2,10, 1,10, 0,23, 0.00,60.00,Tuesday
213,161129795.44690624
5925,161129795.44690624
2,10, 1,10, 0,24, 0.00,60.00,Tuesday
213,122639591.40912917
5925,122639591.40912917
2,11, 1,11, 0, 1, 0.00,60.00,Wednesday
213,103649702.67924759
5925,103649702.67924756
2,11, 1,11, 0, 2, 0.00,60.00,Wednesday
213,82655111.56515616
5925,82655111.56515616
2,11, 1,11, 0, 3, 0.00,60.00,Wednesday
213,97159865.51147388
5925,97159865.51147386
2,11, 1,11, 0, 4, 0.00,60.00,Wednesday
213,85482149.78217034
5925,85482149.78217034
2,11, 1,11, 0, 5, 0.00,60.00,Wednesday
213,88203216.23548813
5925,88203216.23548813
2,11, 1,11, 0, 6, 0.00,60.00,Wednesday
213,132194357.20542336
5925,132194357.20542333
2,11, 1,11, 0, 7, 0.00,60.00,Wednesday
213,184290589.04775417
5925,184290589.0477542
2,11, 1,11, 0, 8, 0.00,60.00,Wednesday
213,193343824.67445353
5925,193343824.6744535
2,11, 1,11, 0, 9, 0.00,60.00,Wednesday
213,179600126.79501006
5925,179600126.79501003
2,11, 1,11, 0,10, 0.00,60.00,Wednesday
213,168612750.92790452
5925,168612750.92790452
2,11, 1,11, 0,11, 0.00,60.00,Wednesday
213,154403638.80545342
5925,154403638.8054534
2,11, 1,11, 0,12, 0.00,60.00,Wednesday
213,144830906.65622303
5925,144830906.65622303
2,11, 1,11, 0,13, 0.00,60.00,Wednesday
213,134091351.71886529
5925,134091351.7188653
2,11, 1,11, 0,14, 0.00,60.00,Wednesday
213,131461641.82943454
5925,131461641.82943457
2,11, 1,11, 0,15, 0.00,60.00,Wednesday
213,122642348.2378791
5925,122642348.23787911
2,11, 1,11, 0,16, 0.00,60.00,Wednesday
213,141735172.19843626
5925,141735172.19843626
2,11, 1,11, 0,17, 0.00,60.00,Wednesday
213,162160579.12653533
5925,162160579.12653548
2,11, 1,11, 0,18, 0.00,60.00,Wednesday
213,197384073.2608296
5925,197384073.26082996
2,11, 1,11, 0,19, 0.00,60.00,Wednesday
213,236960284.59909683
5925,236960284.59909725
2,11, 1,11, 0,20, 0.00,60.00,Wednesday
213,228724391.19527873
5925,228724391.1952791
2,11, 1,11, 0,21, 0.00,60.00,Wednesday
213,217053622.76888162
5925,217053622.76888198
2,11, 1,11, 0,22, 0.00,60.00,Wednesday
213,195225595.41635174
5925,195225595.4163519
2,11, 1,11, 0,23, 0.00,60.00,Wednesday
213,162811208.78822312
5925,162811208.78822312
2,11, 1,11, 0,24, 0.00,60.00,Wednesday
213,131999494.97458057
5925,131999494.97458054
2,12, 1,12, 0, 1, 0.00,60.00,Thursday
213,97129134.78925908
5925,97129134.78925908
2,12, 1,12, 0, 2, 0.00,60.00,Thursday
213,100365529.19480042
5925,100365529.1948004
2,12, 1,12, 0, 3, 0.00,60.00,Thursday
213,91546121.60533413
5925,91546121.60533416
2,12, 1,12, 0, 4, 0.00,60.00,Thursday
213,97625331.97305849
5925,97625331.97305849
2,12, 1,12, 0, 5, 0.00,60.00,Thursday
213,97429340.02926375
5925,97429340.02926375
2,12, 1,12, 0, 6, 0.00,60.00,Thursday
213,130332984.20168114
5925,130332984.20168114
2,12, 1,12, 0, 7, 0.00,60.00,Thursday
213,196291741.77687818
5925,196291741.77687824
2,12, 1,12, 0, 8, 0.00,60.00,Thursday
213,196232203.98340082
5925,196232203.9834008
2,12, 1,12, 0, 9, 0.00,60.00,Thursday
213,188085813.36591035
5925,188085813.36591035
2,12, 1,12, 0,10, 0.00,60.00,Thursday
213,169956296.18033582
5925,169956296.1803358
2,12, 1,12, 0,11, 0.00,60.00,Thursday
213,156850714.08262932
5925,156850714.0826293
2,12, 1,12, 0,12, 0.00,60.00,Thursday
213,146280710.74230233
5925,146280710.74230233
2,12, 1,12, 0,13, 0.00,60.00,Thursday
213,144347487.07242617
5925,144347487.07242617
2,12, 1,12, 0,14, 0.00,60.00,Thursday
213,131594356.53015518
5925,131594356.53015521
2,12, 1,12, 0,15, 0.00,60.00,Thursday
213,127832687.08716899
5925,127832687.08716899
2,12, 1,12, 0,16, 0.00,60.00,Thursday
213,140396167.52921662
5925,140396167.52921665
2,12, 1,12, 0,17, 0.00,60.00,Thursday
213,161634945.45929804
5925,161634945.45929825
2,12, 1,12, 0,18, 0.00,60.00,Thursday
213,208184915.3018644
5925,208184915.3018647
2,12, 1,12, 0,19, 0.00,60.00,Thursday
213,230358384.80699983
5925,230358384.8070002
2,12, 1,12, 0,20, 0.00,60.00,Thursday
213,228699868.39371398
5925,228699868.3937143
2,12, 1,12, 0,21, 0.00,60.00,Thursday
213,219754188.95717156
5925,219754188.9571719
2,12, 1,12, 0,22, 0.00,60.00,Thursday
213,197202087.72336453
5925,197202087.7233647
2,12, 1,12, 0,23, 0.00,60.00,Thursday
213,159754257.2035145
5925,159754257.2035145
2,12, 1,12, 0,24, 0.00,60.00,Thursday
213,136140256.08175611
5925,136140256.08175611
2,13, 1,13, 0, 1, 0.00,60.00,Friday
213,104540786.72183317
5925,104540786.72183317
2,13, 1,13, 0, 2, 0.00,60.00,Friday
213,92136702.13610609
5925,92136702.1361061
2,13, 1,13, 0, 3, 0.00,60.00,Friday
213,102415287.61855818
5925,102415287.6185582
2,13, 1,13, 0, 4, 0.00,60.00,Friday
213,89567809.18699837
5925,89567809.18699835
2,13, 1,13, 0, 5, 0.00,60.00,Friday
213,103774351.10598624
5925,103774351.10598622
2,13, 1,13, 0, 6, 0.00,60.00,Friday
213,131009828.223796
5925,131009828.223796
2,13, 1,13, 0, 7, 0.00,60.00,Friday
213,197491695.57681265
5925,197491695.57681265
2,13, 1,13, 0, 8, 0.00,60.00,Friday
213,195927877.57508582
5925,195927877.57508582
2,13, 1,13, 0, 9, 0.00,60.00,Friday
213,188133755.23353258
5925,188133755.23353255
2,13, 1,13, 0,10, 0.00,60.00,Friday
213,166843024.85386407
5925,166843024.85386407
2,13, 1,13, 0,11, 0.00,60.00,Friday
213,161606098.0635301
5925,161606098.06353012
2,13, 1,13, 0,12, 0.00,60.00,Friday
213,148832351.90020865
5925,148832351.90020865
2,13, 1,13, 0,13, 0.00,60.00,Friday
213,138465231.18224722
5925,138465231.18224722
2,13, 1,13, 0,14, 0.00,60.00,Friday
213,132137503.29429671
5925,132137503.29429673
2,13, 1,13, 0,15, 0.00,60.00,Friday
213,131571088.04533356
5925,131571088.0453336
2,13, 1,13, 0,16, 0.00,60.00,Friday
213,134144233.04175709
5925,134144233.04175708
2,13, 1,13, 0,17, 0.00,60.00,Friday
213,164509324.32900614
5925,164509324.3290063
2,13, 1,13, 0,18, 0.00,60.00,Friday
213,204678004.6310756
5925,204678004.63107598
2,13, 1,13, 0,19, 0.00,60.00,Friday
213,236260108.49388164
5925,236260108.493882
2,13, 1,13, 0,20, 0.00,60.00,Friday
213,230183790.36386713
5925,230183790.36386746
2,13, 1,13, 0,21, 0.00,60.00,Friday
213,219347557.96811536
5925,219347557.96811566
2,13, 1,13, 0,22, 0.00,60.00,Friday
213,195005867.17929977
5925,195005867.17929995
2,13, 1,13, 0,23, 0.00,60.00,Friday
213,168034299.55483276
5925,168034299.55483276
2,13, 1,13, 0,24, 0.00,60.00,Friday
213,129521644.03037836
5925,129521644.03037837
2,14, 1,14, 0, 1, 0.00,60.00,Saturday
213,107978777.78036332
5925,107978777.7803633
2,14, 1,14, 0, 2, 0.00,60.00,Saturday
213,96122966.03931859
5925,96122966.03931858
2,14, 1,14, 0, 3, 0.00,60.00,Saturday
213,91865212.05754796
5925,91865212.05754797
2,14, 1,14, 0, 4, 0.00,60.00,Saturday
213,97319003.61003102
5925,97319003.61003102
2,14, 1,14, 0, 5, 0.00,60.00,Saturday
213,100795180.47602057
5925,100795180.47602054
2,14, 1,14, 0, 6, 0.00,60.00,Saturday
213,128697884.88119991
5925,128697884.88119993
2,14, 1,14, 0, 7, 0.00,60.00,Saturday
213,200359605.7613289
5925,200359605.76132888
2,14, 1,14, 0, 8, 0.00,60.00,Saturday
213,196891158.18938178
5925,196891158.1893818
2,14, 1,14, 0, 9, 0.00,60.00,Saturday
213,180507763.5658871
5925,180507763.56588706
2,14, 1,14, 0,10, 0.00,60.00,Saturday
213,173034979.06887686
5925,173034979.0688769
2,14, 1,14, 0,11, 0.00,60.00,Saturday
213,150422414.3998866
5925,150422414.39988655
2,14, 1,14, 0,12, 0.00,60.00,Saturday
213,143347310.7085972
5925,143347310.70859724
2,14, 1,14, 0,13, 0.00,60.00,Saturday
213,138345208.5167225
5925,138345208.5167225
2,14, 1,14, 0,14, 0.00,60.00,Saturday
213,131678222.52601056
5925,131678222.52601056
2,14, 1,14, 0,15, 0.00,60.00,Saturday
213,122273791.87473898
5925,122273791.87473898
2,14, 1,14, 0,16, 0.00,60.00,Saturday
213,141027343.56604278
5925,141027343.5660428
2,14, 1,14, 0,17, 0.00,60.00,Saturday
213,161135467.45055205
5925,161135467.45055223
2,14, 1,14, 0,18, 0.00,60.00,Saturday
213,202975123.52428782
5925,202975123.52428815
2,14, 1,14, 0,19, 0.00,60.00,Saturday
213,237155231.5838529
5925,237155231.58385324
2,14, 1,14, 0,20, 0.00,60.00,Saturday
213,223704424.14785305
5925,223704424.1478534
2,14, 1,14, 0,21, 0.00,60.00,Saturday
213,227357132.96066105
5925,227357132.96066138
2,14, 1,14, 0,22, 0.00,60.00,Saturday
213,194685698.22366157
5925,194685698.22366172
2,14, 1,14, 0,23, 0.00,60.00,Saturday
213,170511618.2181506
5925,170511618.2181506
2,14, 1,14, 0,24, 0.00,60.00,Saturday
213,126579099.51635073
5925,126579099.51635072
2,15, 1,15, 0, 1, 0.00,60.00,Sunday
213,101544572.32969277
5925,101544572.32969275
2,15, 1,15, 0, 2, 0.00,60.00,Sunday
213,101572931.21663669
5925,101572931.2166367
2,15, 1,15, 0, 3, 0.00,60.00,Sunday
213,94772139.92262733
5925,94772139.92262733
2,15, 1,15, 0, 4, 0.00,60.00,Sunday
213,90654858.61416446
5925,90654858.61416446
2,15, 1,15, 0, 5, 0.00,60.00,Sunday
213,107160812.0631942
5925,107160812.06319417
2,15, 1,15, 0, 6, 0.00,60.00,Sunday
213,128020315.31001006
5925,128020315.31001008
2,15, 1,15, 0, 7, 0.00,60.00,Sunday
213,198161778.167835
5925,198161778.16783497
2,15, 1,15, 0, 8, 0.00,60.00,Sunday
213,196528113.32579103
5925,196528113.32579103
2,15, 1,15, 0, 9, 0.00,60.00,Sunday
213,184705423.87097365
5925,184705423.87097365
2,15, 1,15, 0,10, 0.00,60.00,Sunday
213,165811198.00064558
5925,165811198.00064558
2,15, 1,15, 0,11, 0.00,60.00,Sunday
213,157050866.54266366
5925,157050866.54266366
2,15, 1,15, 0,12, 0.00,60.00,Sunday
213,143784990.49597615
5925,143784990.49597612
2,15, 1,15, 0,13, 0.00,60.00,Sunday
213,140294000.96762353
5925,140294000.96762353
2,15, 1,15, 0,14, 0.00,60.00,Sunday
213,124177163.02224526
5925,124177163.02224526
2,15, 1,15, 0,15, 0.00,60.00,Sunday
213,134500239.2571583
5925,134500239.2571583
2,15, 1,15, 0,16, 0.00,60.00,Sunday
213,134542548.32797205
5925,134542548.32797205
2,15, 1,15, 0,17, 0.00,60.00,Sunday
213,156384370.40493917
5925,156384370.40493935